ITEM: TIMESTEP
0
ITEM: NUMBER OF ATOMS
1
ITEM: BOX BOUNDS pp pp pp
-30 30
-30 30
-30 30
ITEM: ATOMS id type x y z vx vy vz
1877979805 1 1.09 0.0 0.0 0.0 0.0010375 0.002059
