ITEM: TIMESTEP
0
ITEM: NUMBER OF ATOMS
1
ITEM: BOX BOUNDS pp pp pp
-2 2
-2 2
-2 2
ITEM: ATOMS id type x y z vx vy vz 
1877979805 1 1.09 0 0 0 0.000627 -0.002059 
ITEM: TIMESTEP
81
ITEM: NUMBER OF ATOMS
1
ITEM: BOX BOUNDS pp pp pp
-2 2
-2 2
-2 2
ITEM: ATOMS id type x y z vx vy vz 
1877979805 1 1.09281 0.0133598 0.0032218 -0.00191214 0.000465945 0.000871337 
ITEM: TIMESTEP
162
ITEM: NUMBER OF ATOMS
1
ITEM: BOX BOUNDS pp pp pp
-2 2
-2 2
-2 2
ITEM: ATOMS id type x y z vx vy vz 
1877979805 1 1.0937 0.0270391 0.000231622 0.00152906 0.000503233 0.00142876 
ITEM: TIMESTEP
243
ITEM: NUMBER OF ATOMS
1
ITEM: BOX BOUNDS pp pp pp
-2 2
-2 2
-2 2
ITEM: ATOMS id type x y z vx vy vz 
1877979805 1 1.08945 0.040358 0.00134543 0.000636593 0.000646588 -0.00195174 
ITEM: TIMESTEP
324
ITEM: NUMBER OF ATOMS
1
ITEM: BOX BOUNDS pp pp pp
-2 2
-2 2
-2 2
ITEM: ATOMS id type x y z vx vy vz 
1877979805 1 1.0908 0.0537292 0.00535307 -0.0021001 0.000414286 0.000224864 
ITEM: TIMESTEP
405
ITEM: NUMBER OF ATOMS
1
ITEM: BOX BOUNDS pp pp pp
-2 2
-2 2
-2 2
ITEM: ATOMS id type x y z vx vy vz 
1877979805 1 1.09227 0.0674625 0.00291738 0.000985579 0.000508103 0.00184474 
ITEM: TIMESTEP
486
ITEM: NUMBER OF ATOMS
1
ITEM: BOX BOUNDS pp pp pp
-2 2
-2 2
-2 2
ITEM: ATOMS id type x y z vx vy vz 
1877979805 1 1.08757 0.0806721 0.00279035 0.00120859 0.000700832 -0.0016373 
ITEM: TIMESTEP
567
ITEM: NUMBER OF ATOMS
1
ITEM: BOX BOUNDS pp pp pp
-2 2
-2 2
-2 2
ITEM: ATOMS id type x y z vx vy vz 
1877979805 1 1.08726 0.093959 0.00724252 -0.00207202 0.000369262 -0.000450563 
ITEM: TIMESTEP
648
ITEM: NUMBER OF ATOMS
1
ITEM: BOX BOUNDS pp pp pp
-2 2
-2 2
-2 2
ITEM: ATOMS id type x y z vx vy vz 
1877979805 1 1.08909 0.107768 0.00569653 0.000329935 0.000469422 0.00207446 
ITEM: TIMESTEP
729
ITEM: NUMBER OF ATOMS
1
ITEM: BOX BOUNDS pp pp pp
-2 2
-2 2
-2 2
ITEM: ATOMS id type x y z vx vy vz 
1877979805 1 1.08435 0.12089 0.00439757 0.0016529 0.000776464 -0.00113914 
ITEM: TIMESTEP
810
ITEM: NUMBER OF ATOMS
1
ITEM: BOX BOUNDS pp pp pp
-2 2
-2 2
-2 2
ITEM: ATOMS id type x y z vx vy vz 
1877979805 1 1.08227 0.133989 0.008893 -0.00182341 0.000352979 -0.00108775 
ITEM: TIMESTEP
891
ITEM: NUMBER OF ATOMS
1
ITEM: BOX BOUNDS pp pp pp
-2 2
-2 2
-2 2
ITEM: ATOMS id type x y z vx vy vz 
1877979805 1 1.08414 0.147861 0.00849727 -0.000376329 0.000384208 0.00208408 
ITEM: TIMESTEP
972
ITEM: NUMBER OF ATOMS
1
ITEM: BOX BOUNDS pp pp pp
-2 2
-2 2
-2 2
ITEM: ATOMS id type x y z vx vy vz 
1877979805 1 1.07973 0.160951 0.00622218 0.00191245 0.000852332 -0.000498657 
ITEM: TIMESTEP
1053
ITEM: NUMBER OF ATOMS
1
ITEM: BOX BOUNDS pp pp pp
-2 2
-2 2
-2 2
ITEM: ATOMS id type x y z vx vy vz 
1877979805 1 1.07593 0.173771 0.0103287 -0.0013699 0.000385009 -0.00161485 
ITEM: TIMESTEP
1134
ITEM: NUMBER OF ATOMS
1
ITEM: BOX BOUNDS pp pp pp
-2 2
-2 2
-2 2
ITEM: ATOMS id type x y z vx vy vz 
1877979805 1 1.07742 0.187645 0.0112363 -0.00105977 0.000260058 0.00185523 
ITEM: TIMESTEP
1215
ITEM: NUMBER OF ATOMS
1
ITEM: BOX BOUNDS pp pp pp
-2 2
-2 2
-2 2
ITEM: ATOMS id type x y z vx vy vz 
1877979805 1 1.07366 0.200786 0.00830594 0.0019417 0.000901419 0.000223284 
ITEM: TIMESTEP
1296
ITEM: NUMBER OF ATOMS
1
ITEM: BOX BOUNDS pp pp pp
-2 2
-2 2
-2 2
ITEM: ATOMS id type x y z vx vy vz 
1877979805 1 1.06831 0.213265 0.0115991 -0.000750983 0.000478078 -0.00195961 
ITEM: TIMESTEP
1377
ITEM: NUMBER OF ATOMS
1
ITEM: BOX BOUNDS pp pp pp
-2 2
-2 2
-2 2
ITEM: ATOMS id type x y z vx vy vz 
1877979805 1 1.06898 0.227033 0.0138222 -0.00163811 0.000116691 0.00139125 
ITEM: TIMESTEP
1458
ITEM: NUMBER OF ATOMS
1
ITEM: BOX BOUNDS pp pp pp
-2 2
-2 2
-2 2
ITEM: ATOMS id type x y z vx vy vz 
1877979805 1 1.06604 0.24031 0.0106692 0.001714 0.000894485 0.000945893 
ITEM: TIMESTEP
1539
ITEM: NUMBER OF ATOMS
1
ITEM: BOX BOUNDS pp pp pp
-2 2
-2 2
-2 2
ITEM: ATOMS id type x y z vx vy vz 
1877979805 1 1.0595 0.252441 0.0127824 -3.30671e-05 0.000633053 -0.00205688 
ITEM: TIMESTEP
1620
ITEM: NUMBER OF ATOMS
1
ITEM: BOX BOUNDS pp pp pp
-2 2
-2 2
-2 2
ITEM: ATOMS id type x y z vx vy vz 
1877979805 1 1.05889 0.265948 0.0161627 -0.00202663 -1.39496e-05 0.000724699 
ITEM: TIMESTEP
1701
ITEM: NUMBER OF ATOMS
1
ITEM: BOX BOUNDS pp pp pp
-2 2
-2 2
-2 2
ITEM: ATOMS id type x y z vx vy vz 
1877979805 1 1.05682 0.279423 0.0133001 0.00123092 0.00080585 0.001571 
ITEM: TIMESTEP
1782
ITEM: NUMBER OF ATOMS
1
ITEM: BOX BOUNDS pp pp pp
-2 2
-2 2
-2 2
ITEM: ATOMS id type x y z vx vy vz 
1877979805 1 1.04954 0.29127 0.0139859 0.0006902 0.00083391 -0.00186033 
ITEM: TIMESTEP
1863
ITEM: NUMBER OF ATOMS
1
ITEM: BOX BOUNDS pp pp pp
-2 2
-2 2
-2 2
ITEM: ATOMS id type x y z vx vy vz 
1877979805 1 1.04726 0.304333 0.0181771 -0.00214914 -9.02929e-05 -7.52984e-05 
ITEM: TIMESTEP
1944
ITEM: NUMBER OF ATOMS
1
ITEM: BOX BOUNDS pp pp pp
-2 2
-2 2
-2 2
ITEM: ATOMS id type x y z vx vy vz 
1877979805 1 1.04589 0.318014 0.0161437 0.000532101 0.000621487 0.00199079 
ITEM: TIMESTEP
2025
ITEM: NUMBER OF ATOMS
1
ITEM: BOX BOUNDS pp pp pp
-2 2
-2 2
-2 2
ITEM: ATOMS id type x y z vx vy vz 
1877979805 1 1.03845 0.329714 0.0153402 0.00130304 0.00104422 -0.00135805 
ITEM: TIMESTEP
2106
ITEM: NUMBER OF ATOMS
1
ITEM: BOX BOUNDS pp pp pp
-2 2
-2 2
-2 2
ITEM: ATOMS id type x y z vx vy vz 
1877979805 1 1.03425 0.342157 0.0198155 -0.00195445 -6.79777e-05 -0.000898949 
ITEM: TIMESTEP
2187
ITEM: NUMBER OF ATOMS
1
ITEM: BOX BOUNDS pp pp pp
-2 2
-2 2
-2 2
ITEM: ATOMS id type x y z vx vy vz 
1877979805 1 1.03321 0.355962 0.0190923 -0.000297039 0.000348741 0.00210304 
ITEM: TIMESTEP
2268
ITEM: NUMBER OF ATOMS
1
ITEM: BOX BOUNDS pp pp pp
-2 2
-2 2
-2 2
ITEM: ATOMS id type x y z vx vy vz 
1877979805 1 1.02618 0.367715 0.0169836 0.00168106 0.00120766 -0.000590085 
ITEM: TIMESTEP
2349
ITEM: NUMBER OF ATOMS
1
ITEM: BOX BOUNDS pp pp pp
-2 2
-2 2
-2 2
ITEM: ATOMS id type x y z vx vy vz 
1877979805 1 1.02005 0.37942 0.0210828 -0.00143725 8.78924e-05 -0.00159975 
ITEM: TIMESTEP
2430
ITEM: NUMBER OF ATOMS
1
ITEM: BOX BOUNDS pp pp pp
-2 2
-2 2
-2 2
ITEM: ATOMS id type x y z vx vy vz 
1877979805 1 1.01876 0.393154 0.0219845 -0.00112406 2.55167e-05 0.00183533 
ITEM: TIMESTEP
2511
ITEM: NUMBER OF ATOMS
1
ITEM: BOX BOUNDS pp pp pp
-2 2
-2 2
-2 2
ITEM: ATOMS id type x y z vx vy vz 
1877979805 1 1.01264 0.405184 0.0190341 0.0017153 0.00125568 0.000337065 
ITEM: TIMESTEP
2592
ITEM: NUMBER OF ATOMS
1
ITEM: BOX BOUNDS pp pp pp
-2 2
-2 2
-2 2
ITEM: ATOMS id type x y z vx vy vz 
1877979805 1 1.00484 0.416147 0.0220633 -0.000659225 0.000385391 -0.00201234 
ITEM: TIMESTEP
2673
ITEM: NUMBER OF ATOMS
1
ITEM: BOX BOUNDS pp pp pp
-2 2
-2 2
-2 2
ITEM: ATOMS id type x y z vx vy vz 
1877979805 1 1.0026 0.429503 0.0246191 -0.00178084 -0.000275324 0.00117703 
ITEM: TIMESTEP
2754
ITEM: NUMBER OF ATOMS
1
ITEM: BOX BOUNDS pp pp pp
-2 2
-2 2
-2 2
ITEM: ATOMS id type x y z vx vy vz 
1877979805 1 0.997671 0.441984 0.0215489 0.001346 0.00112512 0.001247 
ITEM: TIMESTEP
2835
ITEM: NUMBER OF ATOMS
1
ITEM: BOX BOUNDS pp pp pp
-2 2
-2 2
-2 2
ITEM: ATOMS id type x y z vx vy vz 
1877979805 1 0.988764 0.452367 0.0229355 0.000237964 0.000786835 -0.00198919 
ITEM: TIMESTEP
2916
ITEM: NUMBER OF ATOMS
1
ITEM: BOX BOUNDS pp pp pp
-2 2
-2 2
-2 2
ITEM: ATOMS id type x y z vx vy vz 
1877979805 1 0.984919 0.464974 0.0267922 -0.00209342 -0.00045271 0.000212715 
ITEM: TIMESTEP
2997
ITEM: NUMBER OF ATOMS
1
ITEM: BOX BOUNDS pp pp pp
-2 2
-2 2
-2 2
ITEM: ATOMS id type x y z vx vy vz 
1877979805 1 0.981088 0.477943 0.0244779 0.000600331 0.000785942 0.00191168 
ITEM: TIMESTEP
3078
ITEM: NUMBER OF ATOMS
1
ITEM: BOX BOUNDS pp pp pp
-2 2
-2 2
-2 2
ITEM: ATOMS id type x y z vx vy vz 
1877979805 1 0.971893 0.488087 0.0239626 0.00104022 0.00119653 -0.00145563 
ITEM: TIMESTEP
3159
ITEM: NUMBER OF ATOMS
1
ITEM: BOX BOUNDS pp pp pp
-2 2
-2 2
-2 2
ITEM: ATOMS id type x y z vx vy vz 
1877979805 1 0.965969 0.499608 0.0283609 -0.00193307 -0.000402103 -0.000856845 
ITEM: TIMESTEP
3240
ITEM: NUMBER OF ATOMS
1
ITEM: BOX BOUNDS pp pp pp
-2 2
-2 2
-2 2
ITEM: ATOMS id type x y z vx vy vz 
1877979805 1 0.962748 0.512869 0.0276276 -0.00037877 0.000273937 0.00210098 
ITEM: TIMESTEP
3321
ITEM: NUMBER OF ATOMS
1
ITEM: BOX BOUNDS pp pp pp
-2 2
-2 2
-2 2
ITEM: ATOMS id type x y z vx vy vz 
1877979805 1 0.954148 0.52324 0.0254424 0.00150171 0.00146791 -0.000471926 
ITEM: TIMESTEP
3402
ITEM: NUMBER OF ATOMS
1
ITEM: BOX BOUNDS pp pp pp
-2 2
-2 2
-2 2
ITEM: ATOMS id type x y z vx vy vz 
1877979805 1 0.946092 0.533521 0.0293248 -0.00128177 -6.11555e-05 -0.00172799 
ITEM: TIMESTEP
3483
ITEM: NUMBER OF ATOMS
1
ITEM: BOX BOUNDS pp pp pp
-2 2
-2 2
-2 2
ITEM: ATOMS id type x y z vx vy vz 
1877979805 1 0.942618 0.546611 0.0306613 -0.00133267 -0.000285321 0.00166589 
ITEM: TIMESTEP
3564
ITEM: NUMBER OF ATOMS
1
ITEM: BOX BOUNDS pp pp pp
-2 2
-2 2
-2 2
ITEM: ATOMS id type x y z vx vy vz 
1877979805 1 0.935304 0.557653 0.027608 0.00142327 0.00144299 0.000724351 
ITEM: TIMESTEP
3645
ITEM: NUMBER OF ATOMS
1
ITEM: BOX BOUNDS pp pp pp
-2 2
-2 2
-2 2
ITEM: ATOMS id type x y z vx vy vz 
1877979805 1 0.925613 0.566868 0.0298979 -0.000289556 0.000532383 -0.00206527 
ITEM: TIMESTEP
3726
ITEM: NUMBER OF ATOMS
1
ITEM: BOX BOUNDS pp pp pp
-2 2
-2 2
-2 2
ITEM: ATOMS id type x y z vx vy vz 
1877979805 1 0.920858 0.579126 0.0331657 -0.00193797 -0.000683506 0.00064008 
ITEM: TIMESTEP
3807
ITEM: NUMBER OF ATOMS
1
ITEM: BOX BOUNDS pp pp pp
-2 2
-2 2
-2 2
ITEM: ATOMS id type x y z vx vy vz 
1877979805 1 0.915029 0.59104 0.0304962 0.000754312 0.00102727 0.00173446 
ITEM: TIMESTEP
3888
ITEM: NUMBER OF ATOMS
1
ITEM: BOX BOUNDS pp pp pp
-2 2
-2 2
-2 2
ITEM: ATOMS id type x y z vx vy vz 
1877979805 1 0.90471 0.599756 0.0305188 0.000716392 0.00119843 -0.00163804 
ITEM: TIMESTEP
3969
ITEM: NUMBER OF ATOMS
1
ITEM: BOX BOUNDS pp pp pp
-2 2
-2 2
-2 2
ITEM: ATOMS id type x y z vx vy vz 
1877979805 1 0.897854 0.610545 0.0348032 -0.00192021 -0.000691925 -0.000683107 
ITEM: TIMESTEP
4050
ITEM: NUMBER OF ATOMS
1
ITEM: BOX BOUNDS pp pp pp
-2 2
-2 2
-2 2
ITEM: ATOMS id type x y z vx vy vz 
1877979805 1 0.89301 0.623069 0.0338339 -0.000322556 0.000280826 0.00210943 
ITEM: TIMESTEP
4131
ITEM: NUMBER OF ATOMS
1
ITEM: BOX BOUNDS pp pp pp
-2 2
-2 2
-2 2
ITEM: ATOMS id type x y z vx vy vz 
1877979805 1 0.883295 0.63212 0.0317412 0.00131382 0.00163337 -0.000488451 
ITEM: TIMESTEP
4212
ITEM: NUMBER OF ATOMS
1
ITEM: BOX BOUNDS pp pp pp
-2 2
-2 2
-2 2
ITEM: ATOMS id type x y z vx vy vz 
1877979805 1 0.874148 0.641174 0.0355223 -0.00121065 -0.000186357 -0.0017698 
ITEM: TIMESTEP
4293
ITEM: NUMBER OF ATOMS
1
ITEM: BOX BOUNDS pp pp pp
-2 2
-2 2
-2 2
ITEM: ATOMS id type x y z vx vy vz 
1877979805 1 0.869148 0.653506 0.0370305 -0.00138684 -0.000525371 0.00155989 
ITEM: TIMESTEP
4374
ITEM: NUMBER OF ATOMS
1
ITEM: BOX BOUNDS pp pp pp
-2 2
-2 2
-2 2
ITEM: ATOMS id type x y z vx vy vz 
1877979805 1 0.860973 0.66364 0.033985 0.00117026 0.00152952 0.000961085 
ITEM: TIMESTEP
4455
ITEM: NUMBER OF ATOMS
1
ITEM: BOX BOUNDS pp pp pp
-2 2
-2 2
-2 2
ITEM: ATOMS id type x y z vx vy vz 
1877979805 1 0.850237 0.67137 0.0357277 -7.25628e-05 0.000706497 -0.0020318 
ITEM: TIMESTEP
4536
ITEM: NUMBER OF ATOMS
1
ITEM: BOX BOUNDS pp pp pp
-2 2
-2 2
-2 2
ITEM: ATOMS id type x y z vx vy vz 
1877979805 1 0.843725 0.682402 0.0393684 -0.00191496 -0.000962022 0.000200129 
ITEM: TIMESTEP
4617
ITEM: NUMBER OF ATOMS
1
ITEM: BOX BOUNDS pp pp pp
-2 2
-2 2
-2 2
ITEM: ATOMS id type x y z vx vy vz 
1877979805 1 0.837179 0.693774 0.0372184 0.000270302 0.000783086 0.00198654 
ITEM: TIMESTEP
4698
ITEM: NUMBER OF ATOMS
1
ITEM: BOX BOUNDS pp pp pp
-2 2
-2 2
-2 2
ITEM: ATOMS id type x y z vx vy vz 
1877979805 1 0.826287 0.701289 0.0362423 0.000922245 0.00154954 -0.00117516 
ITEM: TIMESTEP
4779
ITEM: NUMBER OF ATOMS
1
ITEM: BOX BOUNDS pp pp pp
-2 2
-2 2
-2 2
ITEM: ATOMS id type x y z vx vy vz 
1877979805 1 0.817415 0.710193 0.0404042 -0.00155946 -0.000657571 -0.00132977 
ITEM: TIMESTEP
4860
ITEM: NUMBER OF ATOMS
1
ITEM: BOX BOUNDS pp pp pp
-2 2
-2 2
-2 2
ITEM: ATOMS id type x y z vx vy vz 
1877979805 1 0.811507 0.72201 0.0407709 -0.000955663 -0.000314366 0.00190276 
ITEM: TIMESTEP
4941
ITEM: NUMBER OF ATOMS
1
ITEM: BOX BOUNDS pp pp pp
-2 2
-2 2
-2 2
ITEM: ATOMS id type x y z vx vy vz 
1877979805 1 0.801926 0.73062 0.03793 0.00115644 0.0017569 0.00045667 
ITEM: TIMESTEP
5022
ITEM: NUMBER OF ATOMS
1
ITEM: BOX BOUNDS pp pp pp
-2 2
-2 2
-2 2
ITEM: ATOMS id type x y z vx vy vz 
1877979805 1 0.791019 0.737553 0.0404148 -0.000456404 0.000372706 -0.00207012 
ITEM: TIMESTEP
5103
ITEM: NUMBER OF ATOMS
1
ITEM: BOX BOUNDS pp pp pp
-2 2
-2 2
-2 2
ITEM: ATOMS id type x y z vx vy vz 
1877979805 1 0.784085 0.748262 0.0435304 -0.00176462 -0.00108903 0.000576847 
ITEM: TIMESTEP
5184
ITEM: NUMBER OF ATOMS
1
ITEM: BOX BOUNDS pp pp pp
-2 2
-2 2
-2 2
ITEM: ATOMS id type x y z vx vy vz 
1877979805 1 0.776367 0.758563 0.0410565 0.00039953 0.00100214 0.00186245 
ITEM: TIMESTEP
5265
ITEM: NUMBER OF ATOMS
1
ITEM: BOX BOUNDS pp pp pp
-2 2
-2 2
-2 2
ITEM: ATOMS id type x y z vx vy vz 
1877979805 1 0.764947 0.764911 0.0405065 0.000694048 0.00152059 -0.00135599 
ITEM: TIMESTEP
5346
ITEM: NUMBER OF ATOMS
1
ITEM: BOX BOUNDS pp pp pp
-2 2
-2 2
-2 2
ITEM: ATOMS id type x y z vx vy vz 
1877979805 1 0.755719 0.773155 0.0446397 -0.00155262 -0.000862081 -0.00121606 
ITEM: TIMESTEP
5427
ITEM: NUMBER OF ATOMS
1
ITEM: BOX BOUNDS pp pp pp
-2 2
-2 2
-2 2
ITEM: ATOMS id type x y z vx vy vz 
1877979805 1 0.748928 0.784261 0.044811 -0.000881231 -0.000354027 0.0019315 
ITEM: TIMESTEP
5508
ITEM: NUMBER OF ATOMS
1
ITEM: BOX BOUNDS pp pp pp
-2 2
-2 2
-2 2
ITEM: ATOMS id type x y z vx vy vz 
1877979805 1 0.738796 0.791896 0.0420193 0.00101115 0.00184049 0.000472019 
ITEM: TIMESTEP
5589
ITEM: NUMBER OF ATOMS
1
ITEM: BOX BOUNDS pp pp pp
-2 2
-2 2
-2 2
ITEM: ATOMS id type x y z vx vy vz 
1877979805 1 0.727492 0.797776 0.0443684 -0.000413199 0.000402266 -0.00207366 
ITEM: TIMESTEP
5670
ITEM: NUMBER OF ATOMS
1
ITEM: BOX BOUNDS pp pp pp
-2 2
-2 2
-2 2
ITEM: ATOMS id type x y z vx vy vz 
1877979805 1 0.719704 0.807578 0.0475861 -0.00169619 -0.00126381 0.000397948 
ITEM: TIMESTEP
5751
ITEM: NUMBER OF ATOMS
1
ITEM: BOX BOUNDS pp pp pp
-2 2
-2 2
-2 2
ITEM: ATOMS id type x y z vx vy vz 
1877979805 1 0.711506 0.817284 0.0453597 0.000168565 0.0008382 0.00197525 
ITEM: TIMESTEP
5832
ITEM: NUMBER OF ATOMS
1
ITEM: BOX BOUNDS pp pp pp
-2 2
-2 2
-2 2
ITEM: ATOMS id type x y z vx vy vz 
1877979805 1 0.699907 0.822755 0.0443268 0.000715897 0.00172354 -0.00107215 
ITEM: TIMESTEP
5913
ITEM: NUMBER OF ATOMS
1
ITEM: BOX BOUNDS pp pp pp
-2 2
-2 2
-2 2
ITEM: ATOMS id type x y z vx vy vz 
1877979805 1 0.689778 0.829585 0.0482462 -0.00129601 -0.0007526 -0.00154485 
ITEM: TIMESTEP
5994
ITEM: NUMBER OF ATOMS
1
ITEM: BOX BOUNDS pp pp pp
-2 2
-2 2
-2 2
ITEM: ATOMS id type x y z vx vy vz 
1877979805 1 0.68225 0.839893 0.0492137 -0.00112942 -0.00077949 0.00165814 
ITEM: TIMESTEP
6075
ITEM: NUMBER OF ATOMS
1
ITEM: BOX BOUNDS pp pp pp
-2 2
-2 2
-2 2
ITEM: ATOMS id type x y z vx vy vz 
1877979805 1 0.672273 0.847307 0.0462872 0.000750482 0.00172414 0.00104725 
ITEM: TIMESTEP
6156
ITEM: NUMBER OF ATOMS
1
ITEM: BOX BOUNDS pp pp pp
-2 2
-2 2
-2 2
ITEM: ATOMS id type x y z vx vy vz 
1877979805 1 0.660455 0.851876 0.047557 -1.93388e-05 0.000917672 -0.00194682 
ITEM: TIMESTEP
6237
ITEM: NUMBER OF ATOMS
1
ITEM: BOX BOUNDS pp pp pp
-2 2
-2 2
-2 2
ITEM: ATOMS id type x y z vx vy vz 
1877979805 1 0.651435 0.859972 0.0513468 -0.0016037 -0.00137941 -0.000397478 
ITEM: TIMESTEP
6318
ITEM: NUMBER OF ATOMS
1
ITEM: BOX BOUNDS pp pp pp
-2 2
-2 2
-2 2
ITEM: ATOMS id type x y z vx vy vz 
1877979805 1 0.643197 0.869527 0.050199 -0.000391569 0.000127969 0.00211256 
ITEM: TIMESTEP
6399
ITEM: NUMBER OF ATOMS
1
ITEM: BOX BOUNDS pp pp pp
-2 2
-2 2
-2 2
ITEM: ATOMS id type x y z vx vy vz 
1877979805 1 0.631925 0.874797 0.0480022 0.000783615 0.00199933 -0.000145709 
ITEM: TIMESTEP
6480
ITEM: NUMBER OF ATOMS
1
ITEM: BOX BOUNDS pp pp pp
-2 2
-2 2
-2 2
ITEM: ATOMS id type x y z vx vy vz 
1877979805 1 0.620628 0.879507 0.0509747 -0.000709445 -5.89438e-05 -0.00203121 
ITEM: TIMESTEP
6561
ITEM: NUMBER OF ATOMS
1
ITEM: BOX BOUNDS pp pp pp
-2 2
-2 2
-2 2
ITEM: ATOMS id type x y z vx vy vz 
1877979805 1 0.612128 0.888378 0.0535963 -0.00145505 -0.00141467 0.000717039 
ITEM: TIMESTEP
6642
ITEM: NUMBER OF ATOMS
1
ITEM: BOX BOUNDS pp pp pp
-2 2
-2 2
-2 2
ITEM: ATOMS id type x y z vx vy vz 
1877979805 1 0.602832 0.896427 0.0511882 0.000158709 0.000992212 0.0019034 
ITEM: TIMESTEP
6723
ITEM: NUMBER OF ATOMS
1
ITEM: BOX BOUNDS pp pp pp
-2 2
-2 2
-2 2
ITEM: ATOMS id type x y z vx vy vz 
1877979805 1 0.590956 0.900206 0.0503314 0.000495561 0.00177859 -0.00110618 
ITEM: TIMESTEP
6804
ITEM: NUMBER OF ATOMS
1
ITEM: BOX BOUNDS pp pp pp
-2 2
-2 2
-2 2
ITEM: ATOMS id type x y z vx vy vz 
1877979805 1 0.580327 0.905493 0.0540904 -0.00113493 -0.000845087 -0.00162184 
ITEM: TIMESTEP
6885
ITEM: NUMBER OF ATOMS
1
ITEM: BOX BOUNDS pp pp pp
-2 2
-2 2
-2 2
ITEM: ATOMS id type x y z vx vy vz 
1877979805 1 0.571799 0.914438 0.0553113 -0.00111829 -0.00108826 0.00148247 
ITEM: TIMESTEP
6966
ITEM: NUMBER OF ATOMS
1
ITEM: BOX BOUNDS pp pp pp
-2 2
-2 2
-2 2
ITEM: ATOMS id type x y z vx vy vz 
1877979805 1 0.561573 0.920825 0.052482 0.000433152 0.00158734 0.00138756 
ITEM: TIMESTEP
7047
ITEM: NUMBER OF ATOMS
1
ITEM: BOX BOUNDS pp pp pp
-2 2
-2 2
-2 2
ITEM: ATOMS id type x y z vx vy vz 
1877979805 1 0.549588 0.923746 0.0529064 0.000136273 0.00133405 -0.00168355 
ITEM: TIMESTEP
7128
ITEM: NUMBER OF ATOMS
1
ITEM: BOX BOUNDS pp pp pp
-2 2
-2 2
-2 2
ITEM: ATOMS id type x y z vx vy vz 
1877979805 1 0.539446 0.929547 0.0567656 -0.00130352 -0.00133587 -0.00107186 
ITEM: TIMESTEP
7209
ITEM: NUMBER OF ATOMS
1
ITEM: BOX BOUNDS pp pp pp
-2 2
-2 2
-2 2
ITEM: ATOMS id type x y z vx vy vz 
1877979805 1 0.530606 0.938053 0.0568448 -0.00079663 -0.000667976 0.00188462 
ITEM: TIMESTEP
7290
ITEM: NUMBER OF ATOMS
1
ITEM: BOX BOUNDS pp pp pp
-2 2
-2 2
-2 2
ITEM: ATOMS id type x y z vx vy vz 
1877979805 1 0.51976 0.942993 0.0540886 0.000499607 0.00190622 0.000865631 
ITEM: TIMESTEP
7371
ITEM: NUMBER OF ATOMS
1
ITEM: BOX BOUNDS pp pp pp
-2 2
-2 2
-2 2
ITEM: ATOMS id type x y z vx vy vz 
1877979805 1 0.507891 0.945424 0.0554243 -0.000147844 0.000898706 -0.00195015 
ITEM: TIMESTEP
7452
ITEM: NUMBER OF ATOMS
1
ITEM: BOX BOUNDS pp pp pp
-2 2
-2 2
-2 2
ITEM: ATOMS id type x y z vx vy vz 
1877979805 1 0.497986 0.951439 0.0590737 -0.00131254 -0.00159053 -0.000616486 
ITEM: TIMESTEP
7533
ITEM: NUMBER OF ATOMS
1
ITEM: BOX BOUNDS pp pp pp
-2 2
-2 2
-2 2
ITEM: ATOMS id type x y z vx vy vz 
1877979805 1 0.488786 0.959291 0.0584296 -0.000580657 -0.000336472 0.00204505 
ITEM: TIMESTEP
7614
ITEM: NUMBER OF ATOMS
1
ITEM: BOX BOUNDS pp pp pp
-2 2
-2 2
-2 2
ITEM: ATOMS id type x y z vx vy vz 
1877979805 1 0.477623 0.963127 0.0558909 0.000458542 0.0020416 0.000504202 
ITEM: TIMESTEP
7695
ITEM: NUMBER OF ATOMS
1
ITEM: BOX BOUNDS pp pp pp
-2 2
-2 2
-2 2
ITEM: ATOMS id type x y z vx vy vz 
1877979805 1 0.465908 0.965164 0.0577165 -0.000309987 0.000607634 -0.0020414 
ITEM: TIMESTEP
7776
ITEM: NUMBER OF ATOMS
1
ITEM: BOX BOUNDS pp pp pp
-2 2
-2 2
-2 2
ITEM: ATOMS id type x y z vx vy vz 
1877979805 1 0.456041 0.971049 0.0611409 -0.00125219 -0.00171222 -0.0003646 
ITEM: TIMESTEP
7857
ITEM: NUMBER OF ATOMS
1
ITEM: BOX BOUNDS pp pp pp
-2 2
-2 2
-2 2
ITEM: ATOMS id type x y z vx vy vz 
1877979805 1 0.446562 0.978261 0.0601754 -0.000484191 -0.000185492 0.00208896 
ITEM: TIMESTEP
7938
ITEM: NUMBER OF ATOMS
1
ITEM: BOX BOUNDS pp pp pp
-2 2
-2 2
-2 2
ITEM: ATOMS id type x y z vx vy vz 
1877979805 1 0.43531 0.981341 0.0577757 0.000380342 0.00208605 0.000369276 
ITEM: TIMESTEP
8019
ITEM: NUMBER OF ATOMS
1
ITEM: BOX BOUNDS pp pp pp
-2 2
-2 2
-2 2
ITEM: ATOMS id type x y z vx vy vz 
1877979805 1 0.423711 0.982911 0.0597141 -0.00035693 0.000521998 -0.00205736 
ITEM: TIMESTEP
8100
ITEM: NUMBER OF ATOMS
1
ITEM: BOX BOUNDS pp pp pp
-2 2
-2 2
-2 2
ITEM: ATOMS id type x y z vx vy vz 
1877979805 1 0.413755 0.98834 0.0630506 -0.00117124 -0.00177103 -0.000352487 
ITEM: TIMESTEP
8181
ITEM: NUMBER OF ATOMS
1
ITEM: BOX BOUNDS pp pp pp
-2 2
-2 2
-2 2
ITEM: ATOMS id type x y z vx vy vz 
1877979805 1 0.404112 0.995045 0.0621189 -0.000488388 -0.000253839 0.00208078 
ITEM: TIMESTEP
8262
ITEM: NUMBER OF ATOMS
1
ITEM: BOX BOUNDS pp pp pp
-2 2
-2 2
-2 2
ITEM: ATOMS id type x y z vx vy vz 
1877979805 1 0.392936 0.997705 0.0596968 0.000292383 0.00207779 0.000479478 
ITEM: TIMESTEP
8343
ITEM: NUMBER OF ATOMS
1
ITEM: BOX BOUNDS pp pp pp
-2 2
-2 2
-2 2
ITEM: ATOMS id type x y z vx vy vz 
1877979805 1 0.381409 0.998677 0.0614008 -0.000313821 0.000666431 -0.00202237 
ITEM: TIMESTEP
8424
ITEM: NUMBER OF ATOMS
1
ITEM: BOX BOUNDS pp pp pp
-2 2
-2 2
-2 2
ITEM: ATOMS id type x y z vx vy vz 
1877979805 1 0.371286 1.00333 0.0648045 -0.00107845 -0.0017679 -0.000586598 
ITEM: TIMESTEP
8505
ITEM: NUMBER OF ATOMS
1
ITEM: BOX BOUNDS pp pp pp
-2 2
-2 2
-2 2
ITEM: ATOMS id type x y z vx vy vz 
1877979805 1 0.361571 1.00966 0.0642569 -0.000564844 -0.000553745 0.00200173 
ITEM: TIMESTEP
8586
ITEM: NUMBER OF ATOMS
1
ITEM: BOX BOUNDS pp pp pp
-2 2
-2 2
-2 2
ITEM: ATOMS id type x y z vx vy vz 
1877979805 1 0.350597 1.01226 0.0616963 0.00018846 0.00197723 0.000829252 
ITEM: TIMESTEP
8667
ITEM: NUMBER OF ATOMS
1
ITEM: BOX BOUNDS pp pp pp
-2 2
-2 2
-2 2
ITEM: ATOMS id type x y z vx vy vz 
1877979805 1 0.339138 1.01257 0.0628014 -0.000212408 0.00103788 -0.00187358 
ITEM: TIMESTEP
8748
ITEM: NUMBER OF ATOMS
1
ITEM: BOX BOUNDS pp pp pp
-2 2
-2 2
-2 2
ITEM: ATOMS id type x y z vx vy vz 
1877979805 1 0.3288 1.01608 0.0663165 -0.000956828 -0.0016211 -0.00104362 
ITEM: TIMESTEP
8829
ITEM: NUMBER OF ATOMS
1
ITEM: BOX BOUNDS pp pp pp
-2 2
-2 2
-2 2
ITEM: ATOMS id type x y z vx vy vz 
1877979805 1 0.319051 1.02204 0.0665321 -0.000677706 -0.00105763 0.00174778 
ITEM: TIMESTEP
8910
ITEM: NUMBER OF ATOMS
1
ITEM: BOX BOUNDS pp pp pp
-2 2
-2 2
-2 2
ITEM: ATOMS id type x y z vx vy vz 
1877979805 1 0.30837 1.02497 0.0638963 4.61129e-05 0.00166454 0.00136375 
ITEM: TIMESTEP
8991
ITEM: NUMBER OF ATOMS
1
ITEM: BOX BOUNDS pp pp pp
-2 2
-2 2
-2 2
ITEM: ATOMS id type x y z vx vy vz 
1877979805 1 0.297038 1.02477 0.0640206 -9.54417e-05 0.00156792 -0.00147144 
ITEM: TIMESTEP
9072
ITEM: NUMBER OF ATOMS
1
ITEM: BOX BOUNDS pp pp pp
-2 2
-2 2
-2 2
ITEM: ATOMS id type x y z vx vy vz 
1877979805 1 0.286471 1.02678 0.067441 -0.000784012 -0.00118006 -0.00162031 
ITEM: TIMESTEP
9153
ITEM: NUMBER OF ATOMS
1
ITEM: BOX BOUNDS pp pp pp
-2 2
-2 2
-2 2
ITEM: ATOMS id type x y z vx vy vz 
1877979805 1 0.276656 1.0321 0.0687744 -0.000776698 -0.00163831 0.00115987 
ITEM: TIMESTEP
9234
ITEM: NUMBER OF ATOMS
1
ITEM: BOX BOUNDS pp pp pp
-2 2
-2 2
-2 2
ITEM: ATOMS id type x y z vx vy vz 
1877979805 1 0.266315 1.0357 0.0664384 -0.000149318 0.000981003 0.00190996 
ITEM: TIMESTEP
9315
ITEM: NUMBER OF ATOMS
1
ITEM: BOX BOUNDS pp pp pp
-2 2
-2 2
-2 2
ITEM: ATOMS id type x y z vx vy vz 
1877979805 1 0.255226 1.03547 0.0653126 -2.15447e-05 0.00204725 -0.000664006 
ITEM: TIMESTEP
9396
ITEM: NUMBER OF ATOMS
1
ITEM: BOX BOUNDS pp pp pp
-2 2
-2 2
-2 2
ITEM: ATOMS id type x y z vx vy vz 
1877979805 1 0.244482 1.03578 0.0680766 -0.000560123 -0.000307515 -0.00205531 
ITEM: TIMESTEP
9477
ITEM: NUMBER OF ATOMS
1
ITEM: BOX BOUNDS pp pp pp
-2 2
-2 2
-2 2
ITEM: ATOMS id type x y z vx vy vz 
1877979805 1 0.234523 1.03983 0.0706393 -0.000799331 -0.00199397 0.000133222 
ITEM: TIMESTEP
9558
ITEM: NUMBER OF ATOMS
1
ITEM: BOX BOUNDS pp pp pp
-2 2
-2 2
-2 2
ITEM: ATOMS id type x y z vx vy vz 
1877979805 1 0.224481 1.04413 0.069328 -0.000375311 -0.000135492 0.00211504 
ITEM: TIMESTEP
9639
ITEM: NUMBER OF ATOMS
1
ITEM: BOX BOUNDS pp pp pp
-2 2
-2 2
-2 2
ITEM: ATOMS id type x y z vx vy vz 
1877979805 1 0.213766 1.04466 0.0670991 -4.99716e-05 0.00208169 0.000544665 
ITEM: TIMESTEP
9720
ITEM: NUMBER OF ATOMS
1
ITEM: BOX BOUNDS pp pp pp
-2 2
-2 2
-2 2
ITEM: ATOMS id type x y z vx vy vz 
1877979805 1 0.202989 1.04358 0.0683785 -0.000334888 0.000922391 -0.00191563 
ITEM: TIMESTEP
9801
ITEM: NUMBER OF ATOMS
1
ITEM: BOX BOUNDS pp pp pp
-2 2
-2 2
-2 2
ITEM: ATOMS id type x y z vx vy vz 
1877979805 1 0.192834 1.04554 0.0716743 -0.000701489 -0.00167162 -0.00116026 
ITEM: TIMESTEP
9882
ITEM: NUMBER OF ATOMS
1
ITEM: BOX BOUNDS pp pp pp
-2 2
-2 2
-2 2
ITEM: ATOMS id type x y z vx vy vz 
1877979805 1 0.182954 1.04989 0.0721917 -0.000557037 -0.00140957 0.00152821 
ITEM: TIMESTEP
9963
ITEM: NUMBER OF ATOMS
1
ITEM: BOX BOUNDS pp pp pp
-2 2
-2 2
-2 2
ITEM: ATOMS id type x y z vx vy vz 
1877979805 1 0.172669 1.05192 0.0697685 -0.00019383 0.00124159 0.00174743 
ITEM: TIMESTEP
10044
ITEM: NUMBER OF ATOMS
1
ITEM: BOX BOUNDS pp pp pp
-2 2
-2 2
-2 2
ITEM: ATOMS id type x y z vx vy vz 
1877979805 1 0.162075 1.05058 0.0689773 -0.000200903 0.0019765 -0.000828076 
ITEM: TIMESTEP
10125
ITEM: NUMBER OF ATOMS
1
ITEM: BOX BOUNDS pp pp pp
-2 2
-2 2
-2 2
ITEM: ATOMS id type x y z vx vy vz 
1877979805 1 0.151783 1.05006 0.0716874 -0.000512444 -0.000379756 -0.00205567 
ITEM: TIMESTEP
10206
ITEM: NUMBER OF ATOMS
1
ITEM: BOX BOUNDS pp pp pp
-2 2
-2 2
-2 2
ITEM: ATOMS id type x y z vx vy vz 
1877979805 1 0.141906 1.05301 0.0741773 -0.000605886 -0.00206531 2.17569e-07 
ITEM: TIMESTEP
10287
ITEM: NUMBER OF ATOMS
1
ITEM: BOX BOUNDS pp pp pp
-2 2
-2 2
-2 2
ITEM: ATOMS id type x y z vx vy vz 
1877979805 1 0.131964 1.05641 0.073147 -0.000374471 -0.00044953 0.0020713 
ITEM: TIMESTEP
10368
ITEM: NUMBER OF ATOMS
1
ITEM: BOX BOUNDS pp pp pp
-2 2
-2 2
-2 2
ITEM: ATOMS id type x y z vx vy vz 
1877979805 1 0.121718 1.05645 0.070826 -0.000217366 0.00191701 0.000954161 
ITEM: TIMESTEP
10449
ITEM: NUMBER OF ATOMS
1
ITEM: BOX BOUNDS pp pp pp
-2 2
-2 2
-2 2
ITEM: ATOMS id type x y z vx vy vz 
1877979805 1 0.111484 1.0544 0.0713629 -0.000350505 0.00138908 -0.00160631 
ITEM: TIMESTEP
10530
ITEM: NUMBER OF ATOMS
1
ITEM: BOX BOUNDS pp pp pp
-2 2
-2 2
-2 2
ITEM: ATOMS id type x y z vx vy vz 
1877979805 1 0.101564 1.05452 0.0744756 -0.000518849 -0.00121478 -0.00169933 
ITEM: TIMESTEP
10611
ITEM: NUMBER OF ATOMS
1
ITEM: BOX BOUNDS pp pp pp
-2 2
-2 2
-2 2
ITEM: ATOMS id type x y z vx vy vz 
1877979805 1 0.091797 1.05758 0.0760017 -0.000464279 -0.00194917 0.000785997 
ITEM: TIMESTEP
10692
ITEM: NUMBER OF ATOMS
1
ITEM: BOX BOUNDS pp pp pp
-2 2
-2 2
-2 2
ITEM: ATOMS id type x y z vx vy vz 
1877979805 1 0.0818944 1.05979 0.0742375 -0.000314574 0.000245127 0.00211508 
ITEM: TIMESTEP
10773
ITEM: NUMBER OF ATOMS
1
ITEM: BOX BOUNDS pp pp pp
-2 2
-2 2
-2 2
ITEM: ATOMS id type x y z vx vy vz 
1877979805 1 0.0719003 1.05856 0.0723527 -0.000312051 0.00209996 0.000354109 
ITEM: TIMESTEP
10854
ITEM: NUMBER OF ATOMS
1
ITEM: BOX BOUNDS pp pp pp
-2 2
-2 2
-2 2
ITEM: ATOMS id type x y z vx vy vz 
1877979805 1 0.0620602 1.05624 0.0736118 -0.000423551 0.000911289 -0.00190336 
ITEM: TIMESTEP
10935
ITEM: NUMBER OF ATOMS
1
ITEM: BOX BOUNDS pp pp pp
-2 2
-2 2
-2 2
ITEM: ATOMS id type x y z vx vy vz 
1877979805 1 0.0524048 1.05655 0.0766744 -0.000444014 -0.00158094 -0.00139143 
ITEM: TIMESTEP
11016
ITEM: NUMBER OF ATOMS
1
ITEM: BOX BOUNDS pp pp pp
-2 2
-2 2
-2 2
ITEM: ATOMS id type x y z vx vy vz 
1877979805 1 0.0427388 1.05925 0.0776491 -0.000352128 -0.00180324 0.00112113 
ITEM: TIMESTEP
11097
ITEM: NUMBER OF ATOMS
1
ITEM: BOX BOUNDS pp pp pp
-2 2
-2 2
-2 2
ITEM: ATOMS id type x y z vx vy vz 
1877979805 1 0.0329949 1.0606 0.075686 -0.000320972 0.000514328 0.0020652 
ITEM: TIMESTEP
11178
ITEM: NUMBER OF ATOMS
1
ITEM: BOX BOUNDS pp pp pp
-2 2
-2 2
-2 2
ITEM: ATOMS id type x y z vx vy vz 
1877979805 1 0.0233392 1.05871 0.0740387 -0.000406187 0.00210819 0.000152183 
ITEM: TIMESTEP
11259
ITEM: NUMBER OF ATOMS
1
ITEM: BOX BOUNDS pp pp pp
-2 2
-2 2
-2 2
ITEM: ATOMS id type x y z vx vy vz 
1877979805 1 0.013878 1.05609 0.0754417 -0.000452192 0.000784469 -0.00195262 
ITEM: TIMESTEP
11340
ITEM: NUMBER OF ATOMS
1
ITEM: BOX BOUNDS pp pp pp
-2 2
-2 2
-2 2
ITEM: ATOMS id type x y z vx vy vz 
1877979805 1 0.00447015 1.05605 0.0784047 -0.000357665 -0.00162084 -0.00137025 
ITEM: TIMESTEP
11421
ITEM: NUMBER OF ATOMS
1
ITEM: BOX BOUNDS pp pp pp
-2 2
-2 2
-2 2
ITEM: ATOMS id type x y z vx vy vz 
1877979805 1 -0.0050001 1.05853 0.0791387 -0.000259773 -0.00184354 0.00108004 
ITEM: TIMESTEP
11502
ITEM: NUMBER OF ATOMS
1
ITEM: BOX BOUNDS pp pp pp
-2 2
-2 2
-2 2
ITEM: ATOMS id type x y z vx vy vz 
1877979805 1 -0.0145286 1.0595 0.0772709 -0.000328306 0.000382481 0.00209249 
ITEM: TIMESTEP
11583
ITEM: NUMBER OF ATOMS
1
ITEM: BOX BOUNDS pp pp pp
-2 2
-2 2
-2 2
ITEM: ATOMS id type x y z vx vy vz 
1877979805 1 -0.0238361 1.05738 0.0755334 -0.000484173 0.00206884 0.000343636 
ITEM: TIMESTEP
11664
ITEM: NUMBER OF ATOMS
1
ITEM: BOX BOUNDS pp pp pp
-2 2
-2 2
-2 2
ITEM: ATOMS id type x y z vx vy vz 
1877979805 1 -0.0329117 1.05431 0.0766329 -0.000488704 0.00100425 -0.00183991 
ITEM: TIMESTEP
11745
ITEM: NUMBER OF ATOMS
1
ITEM: BOX BOUNDS pp pp pp
-2 2
-2 2
-2 2
ITEM: ATOMS id type x y z vx vy vz 
1877979805 1 -0.0420175 1.05349 0.079524 -0.000298774 -0.00139695 -0.00160993 
ITEM: TIMESTEP
11826
ITEM: NUMBER OF ATOMS
1
ITEM: BOX BOUNDS pp pp pp
-2 2
-2 2
-2 2
ITEM: ATOMS id type x y z vx vy vz 
1877979805 1 -0.0513231 1.05506 0.0808768 -0.000162875 -0.00202801 0.000702313 
ITEM: TIMESTEP
11907
ITEM: NUMBER OF ATOMS
1
ITEM: BOX BOUNDS pp pp pp
-2 2
-2 2
-2 2
ITEM: ATOMS id type x y z vx vy vz 
1877979805 1 -0.0606378 1.05602 0.0794043 -0.000287085 -0.000128402 0.00212925 
ITEM: TIMESTEP
11988
ITEM: NUMBER OF ATOMS
1
ITEM: BOX BOUNDS pp pp pp
-2 2
-2 2
-2 2
ITEM: ATOMS id type x y z vx vy vz 
1877979805 1 -0.0696434 1.05412 0.0773874 -0.000531473 0.0018796 0.000904012 
ITEM: TIMESTEP
12069
ITEM: NUMBER OF ATOMS
1
ITEM: BOX BOUNDS pp pp pp
-2 2
-2 2
-2 2
ITEM: ATOMS id type x y z vx vy vz 
1877979805 1 -0.078328 1.05064 0.0777119 -0.00056884 0.00150948 -0.00142495 
ITEM: TIMESTEP
12150
ITEM: NUMBER OF ATOMS
1
ITEM: BOX BOUNDS pp pp pp
-2 2
-2 2
-2 2
ITEM: ATOMS id type x y z vx vy vz 
1877979805 1 -0.0870339 1.04864 0.0803251 -0.000315941 -0.000758102 -0.00198949 
ITEM: TIMESTEP
12231
ITEM: NUMBER OF ATOMS
1
ITEM: BOX BOUNDS pp pp pp
-2 2
-2 2
-2 2