ITEM: TIMESTEP
0
ITEM: NUMBER OF ATOMS
0
ITEM: BOX BOUNDS rr rr pp
2 6
-4 3.8
-0.05 0.05
ITEM: ATOMS id type x y z vx vy vz v_pmass temp radius 
ITEM: TIMESTEP
10
ITEM: NUMBER OF ATOMS
1
ITEM: BOX BOUNDS rr rr pp
2 6
-4 3.8
-0.05 0.05
ITEM: ATOMS id type x y z vx vy vz v_pmass temp radius 
1582275455 1 3.45764 -3.25441 0 -1.56436 -0.944682 -0.334512 2.79602e-10 773.157 5e-05 
ITEM: TIMESTEP
20
ITEM: NUMBER OF ATOMS
1
ITEM: BOX BOUNDS rr rr pp
2 6
-4 3.8
-0.05 0.05
ITEM: ATOMS id type x y z vx vy vz v_pmass temp radius 
1582275455 1 3.45748 -3.2545 0 -1.56436 -0.945662 -0.334512 2.79602e-10 773.163 4.99999e-05 
ITEM: TIMESTEP
30
ITEM: NUMBER OF ATOMS
1
ITEM: BOX BOUNDS rr rr pp
2 6
-4 3.8
-0.05 0.05
ITEM: ATOMS id type x y z vx vy vz v_pmass temp radius 
1582275455 1 3.45733 -3.2546 0 -1.56436 -0.946642 -0.334512 2.79602e-10 773.17 4.99999e-05 
ITEM: TIMESTEP
40
ITEM: NUMBER OF ATOMS
1
ITEM: BOX BOUNDS rr rr pp
2 6
-4 3.8
-0.05 0.05
ITEM: ATOMS id type x y z vx vy vz v_pmass temp radius 
1582275455 1 3.45717 -3.25469 0 -1.56436 -0.947622 -0.334512 2.79602e-10 773.177 4.99998e-05 
ITEM: TIMESTEP
50
ITEM: NUMBER OF ATOMS
1
ITEM: BOX BOUNDS rr rr pp
2 6
-4 3.8
-0.05 0.05
ITEM: ATOMS id type x y z vx vy vz v_pmass temp radius 
1582275455 1 3.45701 -3.25479 0 -1.56436 -0.948602 -0.334512 2.79602e-10 773.183 4.99998e-05 
ITEM: TIMESTEP
60
ITEM: NUMBER OF ATOMS
1
ITEM: BOX BOUNDS rr rr pp
2 6
-4 3.8
-0.05 0.05
ITEM: ATOMS id type x y z vx vy vz v_pmass temp radius 
1582275455 1 3.45686 -3.25488 0 -1.56436 -0.949582 -0.334512 2.79602e-10 773.19 4.99997e-05 
ITEM: TIMESTEP
70
ITEM: NUMBER OF ATOMS
1
ITEM: BOX BOUNDS rr rr pp
2 6
-4 3.8
-0.05 0.05
ITEM: ATOMS id type x y z vx vy vz v_pmass temp radius 
1582275455 1 3.4567 -3.25498 0 -1.56436 -0.950562 -0.334512 2.79602e-10 773.197 4.99997e-05 
ITEM: TIMESTEP
80
ITEM: NUMBER OF ATOMS
1
ITEM: BOX BOUNDS rr rr pp
2 6
-4 3.8
-0.05 0.05
ITEM: ATOMS id type x y z vx vy vz v_pmass temp radius 
1582275455 1 3.45654 -3.25507 0 -1.56436 -0.951542 -0.334512 2.79602e-10 773.204 4.99996e-05 
ITEM: TIMESTEP
90
ITEM: NUMBER OF ATOMS
1
ITEM: BOX BOUNDS rr rr pp
2 6
-4 3.8
-0.05 0.05
ITEM: ATOMS id type x y z vx vy vz v_pmass temp radius 
1582275455 1 3.45639 -3.25517 0 -1.56436 -0.952522 -0.334512 2.79602e-10 773.21 4.99996e-05 
ITEM: TIMESTEP
100
ITEM: NUMBER OF ATOMS
1
ITEM: BOX BOUNDS rr rr pp
2 6
-4 3.8
-0.05 0.05
ITEM: ATOMS id type x y z vx vy vz v_pmass temp radius 
1582275455 1 3.45623 -3.25526 0 -1.56436 -0.953502 -0.334512 2.79602e-10 773.217 4.99995e-05 
ITEM: TIMESTEP
110
ITEM: NUMBER OF ATOMS
1
ITEM: BOX BOUNDS rr rr pp
2 6
-4 3.8
-0.05 0.05
ITEM: ATOMS id type x y z vx vy vz v_pmass temp radius 
1582275455 1 3.45607 -3.25536 0 -1.56436 -0.954482 -0.334512 2.79602e-10 773.224 4.99995e-05 
ITEM: TIMESTEP
120
ITEM: NUMBER OF ATOMS
1
ITEM: BOX BOUNDS rr rr pp
2 6
-4 3.8
-0.05 0.05
ITEM: ATOMS id type x y z vx vy vz v_pmass temp radius 
1582275455 1 3.45592 -3.25545 0 -1.56436 -0.955462 -0.334512 2.79602e-10 773.23 4.99994e-05 
ITEM: TIMESTEP
130
ITEM: NUMBER OF ATOMS
1
ITEM: BOX BOUNDS rr rr pp
2 6
-4 3.8
-0.05 0.05
ITEM: ATOMS id type x y z vx vy vz v_pmass temp radius 
1582275455 1 3.45576 -3.25555 0 -1.56436 -0.956442 -0.334512 2.79602e-10 773.237 4.99994e-05 
ITEM: TIMESTEP
140
ITEM: NUMBER OF ATOMS
1
ITEM: BOX BOUNDS rr rr pp
2 6
-4 3.8
-0.05 0.05
ITEM: ATOMS id type x y z vx vy vz v_pmass temp radius 
1582275455 1 3.45561 -3.25565 0 -1.56436 -0.957422 -0.334512 2.79602e-10 773.244 4.99993e-05 
ITEM: TIMESTEP
150
ITEM: NUMBER OF ATOMS
1
ITEM: BOX BOUNDS rr rr pp
2 6
-4 3.8
-0.05 0.05
ITEM: ATOMS id type x y z vx vy vz v_pmass temp radius 
1582275455 1 3.45545 -3.25574 0 -1.56436 -0.958402 -0.334512 2.79602e-10 773.25 4.99993e-05 
ITEM: TIMESTEP
160
ITEM: NUMBER OF ATOMS
1
ITEM: BOX BOUNDS rr rr pp
2 6
-4 3.8
-0.05 0.05
ITEM: ATOMS id type x y z vx vy vz v_pmass temp radius 
1582275455 1 3.45529 -3.25584 0 -1.56436 -0.959382 -0.334512 2.79602e-10 773.257 4.99992e-05 
ITEM: TIMESTEP
170
ITEM: NUMBER OF ATOMS
1
ITEM: BOX BOUNDS rr rr pp
2 6
-4 3.8
-0.05 0.05
ITEM: ATOMS id type x y z vx vy vz v_pmass temp radius 
1582275455 1 3.45514 -3.25593 0 -1.56436 -0.960362 -0.334512 2.79602e-10 773.264 4.99992e-05 
ITEM: TIMESTEP
180
ITEM: NUMBER OF ATOMS
1
ITEM: BOX BOUNDS rr rr pp
2 6
-4 3.8
-0.05 0.05
ITEM: ATOMS id type x y z vx vy vz v_pmass temp radius 
1582275455 1 3.45498 -3.25603 0 -1.56436 -0.961342 -0.334512 2.79602e-10 773.27 4.99991e-05 
ITEM: TIMESTEP
190
ITEM: NUMBER OF ATOMS
1
ITEM: BOX BOUNDS rr rr pp
2 6
-4 3.8
-0.05 0.05
ITEM: ATOMS id type x y z vx vy vz v_pmass temp radius 
1582275455 1 3.45482 -3.25613 0 -1.56436 -0.962322 -0.334512 2.79602e-10 773.277 4.99991e-05 
ITEM: TIMESTEP
200
ITEM: NUMBER OF ATOMS
1
ITEM: BOX BOUNDS rr rr pp
2 6
-4 3.8
-0.05 0.05
ITEM: ATOMS id type x y z vx vy vz v_pmass temp radius 
1582275455 1 3.45467 -3.25622 0 -1.56436 -0.963302 -0.334512 2.79602e-10 773.284 4.9999e-05 
ITEM: TIMESTEP
210
ITEM: NUMBER OF ATOMS
1
ITEM: BOX BOUNDS rr rr pp
2 6
-4 3.8
-0.05 0.05
ITEM: ATOMS id type x y z vx vy vz v_pmass temp radius 
1582275455 1 3.45451 -3.25632 0 -1.56436 -0.964282 -0.334512 2.79602e-10 773.29 4.9999e-05 
ITEM: TIMESTEP
220
ITEM: NUMBER OF ATOMS
1
ITEM: BOX BOUNDS rr rr pp
2 6
-4 3.8
-0.05 0.05
ITEM: ATOMS id type x y z vx vy vz v_pmass temp radius 
1582275455 1 3.45435 -3.25642 0 -1.56436 -0.965262 -0.334512 2.79602e-10 773.297 4.99989e-05 
ITEM: TIMESTEP
230
ITEM: NUMBER OF ATOMS
1
ITEM: BOX BOUNDS rr rr pp
2 6
-4 3.8
-0.05 0.05
ITEM: ATOMS id type x y z vx vy vz v_pmass temp radius 
1582275455 1 3.4542 -3.25651 0 -1.56436 -0.966242 -0.334512 2.79602e-10 773.304 4.99989e-05 
ITEM: TIMESTEP
240
ITEM: NUMBER OF ATOMS
1
ITEM: BOX BOUNDS rr rr pp
2 6
-4 3.8
-0.05 0.05
ITEM: ATOMS id type x y z vx vy vz v_pmass temp radius 
1582275455 1 3.45404 -3.25661 0 -1.56436 -0.967222 -0.334512 2.79602e-10 773.311 4.99988e-05 
ITEM: TIMESTEP
250
ITEM: NUMBER OF ATOMS
1
ITEM: BOX BOUNDS rr rr pp
2 6
-4 3.8
-0.05 0.05
ITEM: ATOMS id type x y z vx vy vz v_pmass temp radius 
1582275455 1 3.45388 -3.25671 0 -1.56436 -0.968202 -0.334512 2.79602e-10 773.317 4.99988e-05 
ITEM: TIMESTEP
260
ITEM: NUMBER OF ATOMS
1
ITEM: BOX BOUNDS rr rr pp
2 6
-4 3.8
-0.05 0.05
ITEM: ATOMS id type x y z vx vy vz v_pmass temp radius 
1582275455 1 3.45373 -3.2568 0 -1.56436 -0.969182 -0.334512 2.79602e-10 773.324 4.99987e-05 
ITEM: TIMESTEP
270
ITEM: NUMBER OF ATOMS
1
ITEM: BOX BOUNDS rr rr pp
2 6
-4 3.8
-0.05 0.05
ITEM: ATOMS id type x y z vx vy vz v_pmass temp radius 
1582275455 1 3.45357 -3.2569 0 -1.56436 -0.970162 -0.334512 2.79602e-10 773.331 4.99987e-05 
ITEM: TIMESTEP
280
ITEM: NUMBER OF ATOMS
1
ITEM: BOX BOUNDS rr rr pp
2 6
-4 3.8
-0.05 0.05
ITEM: ATOMS id type x y z vx vy vz v_pmass temp radius 
1582275455 1 3.45342 -3.257 0 -1.56436 -0.971142 -0.334512 2.79602e-10 773.337 4.99986e-05 
ITEM: TIMESTEP
290
ITEM: NUMBER OF ATOMS
1
ITEM: BOX BOUNDS rr rr pp
2 6
-4 3.8
-0.05 0.05
ITEM: ATOMS id type x y z vx vy vz v_pmass temp radius 
1582275455 1 3.45326 -3.25709 0 -1.56436 -0.972122 -0.334512 2.79602e-10 773.344 4.99986e-05 
ITEM: TIMESTEP
300
ITEM: NUMBER OF ATOMS
1
ITEM: BOX BOUNDS rr rr pp
2 6
-4 3.8
-0.05 0.05
ITEM: ATOMS id type x y z vx vy vz v_pmass temp radius 
1582275455 1 3.4531 -3.25719 0 -1.56436 -0.973102 -0.334512 2.79602e-10 773.351 4.99985e-05 
ITEM: TIMESTEP
310
ITEM: NUMBER OF ATOMS
1
ITEM: BOX BOUNDS rr rr pp
2 6
-4 3.8
-0.05 0.05
ITEM: ATOMS id type x y z vx vy vz v_pmass temp radius 
1582275455 1 3.45295 -3.25729 0 -1.56436 -0.974082 -0.334512 2.79602e-10 773.357 4.99985e-05 
ITEM: TIMESTEP
320
ITEM: NUMBER OF ATOMS
1
ITEM: BOX BOUNDS rr rr pp
2 6
-4 3.8
-0.05 0.05
ITEM: ATOMS id type x y z vx vy vz v_pmass temp radius 
1582275455 1 3.45279 -3.25739 0 -1.56436 -0.975062 -0.334512 2.79602e-10 773.364 4.99984e-05 
ITEM: TIMESTEP
330
ITEM: NUMBER OF ATOMS
1
ITEM: BOX BOUNDS rr rr pp
2 6
-4 3.8
-0.05 0.05
ITEM: ATOMS id type x y z vx vy vz v_pmass temp radius 
1582275455 1 3.45263 -3.25748 0 -1.56436 -0.976042 -0.334512 2.79602e-10 773.371 4.99984e-05 
ITEM: TIMESTEP
340
ITEM: NUMBER OF ATOMS
1
ITEM: BOX BOUNDS rr rr pp
2 6
-4 3.8
-0.05 0.05
ITEM: ATOMS id type x y z vx vy vz v_pmass temp radius 
1582275455 1 3.45248 -3.25758 0 -1.56436 -0.977022 -0.334512 2.79602e-10 773.377 4.99983e-05 
ITEM: TIMESTEP
350
ITEM: NUMBER OF ATOMS
1
ITEM: BOX BOUNDS rr rr pp
2 6
-4 3.8
-0.05 0.05
ITEM: ATOMS id type x y z vx vy vz v_pmass temp radius 
1582275455 1 3.45232 -3.25768 0 -1.56436 -0.978002 -0.334512 2.79602e-10 773.384 4.99983e-05 
ITEM: TIMESTEP
360
ITEM: NUMBER OF ATOMS
1
ITEM: BOX BOUNDS rr rr pp
2 6
-4 3.8
-0.05 0.05
ITEM: ATOMS id type x y z vx vy vz v_pmass temp radius 
1582275455 1 3.45216 -3.25778 0 -1.56436 -0.978982 -0.334512 2.79602e-10 773.391 4.99982e-05 
ITEM: TIMESTEP
370
ITEM: NUMBER OF ATOMS
1
ITEM: BOX BOUNDS rr rr pp
2 6
-4 3.8
-0.05 0.05
ITEM: ATOMS id type x y z vx vy vz v_pmass temp radius 
1582275455 1 3.45201 -3.25787 0 -1.56436 -0.979962 -0.334512 2.79602e-10 773.397 4.99982e-05 
ITEM: TIMESTEP
380
ITEM: NUMBER OF ATOMS
1
ITEM: BOX BOUNDS rr rr pp
2 6
-4 3.8
-0.05 0.05
ITEM: ATOMS id type x y z vx vy vz v_pmass temp radius 
1582275455 1 3.45185 -3.25797 0 -1.56436 -0.980942 -0.334512 2.79602e-10 773.404 4.99981e-05 
ITEM: TIMESTEP
390
ITEM: NUMBER OF ATOMS
1
ITEM: BOX BOUNDS rr rr pp
2 6
-4 3.8
-0.05 0.05
ITEM: ATOMS id type x y z vx vy vz v_pmass temp radius 
1582275455 1 3.45169 -3.25807 0 -1.56436 -0.981922 -0.334512 2.79602e-10 773.411 4.99981e-05 
ITEM: TIMESTEP
400
ITEM: NUMBER OF ATOMS
1
ITEM: BOX BOUNDS rr rr pp
2 6
-4 3.8
-0.05 0.05
ITEM: ATOMS id type x y z vx vy vz v_pmass temp radius 
1582275455 1 3.45154 -3.25817 0 -1.56436 -0.982902 -0.334512 2.79602e-10 773.418 4.9998e-05 
ITEM: TIMESTEP
410
ITEM: NUMBER OF ATOMS
1
ITEM: BOX BOUNDS rr rr pp
2 6
-4 3.8
-0.05 0.05
ITEM: ATOMS id type x y z vx vy vz v_pmass temp radius 
1582275455 1 3.45138 -3.25827 0 -1.56436 -0.983882 -0.334512 2.79602e-10 773.424 4.9998e-05 
ITEM: TIMESTEP
420
ITEM: NUMBER OF ATOMS
1
ITEM: BOX BOUNDS rr rr pp
2 6
-4 3.8
-0.05 0.05
ITEM: ATOMS id type x y z vx vy vz v_pmass temp radius 
1582275455 1 3.45123 -3.25837 0 -1.56436 -0.984862 -0.334512 2.79602e-10 773.431 4.99979e-05 
ITEM: TIMESTEP
430
ITEM: NUMBER OF ATOMS
1
ITEM: BOX BOUNDS rr rr pp
2 6
-4 3.8
-0.05 0.05
ITEM: ATOMS id type x y z vx vy vz v_pmass temp radius 
1582275455 1 3.45107 -3.25846 0 -1.56436 -0.985842 -0.334512 2.79602e-10 773.438 4.99979e-05 
ITEM: TIMESTEP
440
ITEM: NUMBER OF ATOMS
1
ITEM: BOX BOUNDS rr rr pp
2 6
-4 3.8
-0.05 0.05
ITEM: ATOMS id type x y z vx vy vz v_pmass temp radius 
1582275455 1 3.45091 -3.25856 0 -1.56436 -0.986822 -0.334512 2.79602e-10 773.444 4.99978e-05 
ITEM: TIMESTEP
450
ITEM: NUMBER OF ATOMS
1
ITEM: BOX BOUNDS rr rr pp
2 6
-4 3.8
-0.05 0.05
ITEM: ATOMS id type x y z vx vy vz v_pmass temp radius 
1582275455 1 3.45076 -3.25866 0 -1.56436 -0.987802 -0.334512 2.79602e-10 773.451 4.99978e-05 
ITEM: TIMESTEP
460
ITEM: NUMBER OF ATOMS
1
ITEM: BOX BOUNDS rr rr pp
2 6
-4 3.8
-0.05 0.05
ITEM: ATOMS id type x y z vx vy vz v_pmass temp radius 
1582275455 1 3.4506 -3.25876 0 -1.56436 -0.988782 -0.334512 2.79602e-10 773.458 4.99977e-05 
ITEM: TIMESTEP
470
ITEM: NUMBER OF ATOMS
1
ITEM: BOX BOUNDS rr rr pp
2 6
-4 3.8
-0.05 0.05
ITEM: ATOMS id type x y z vx vy vz v_pmass temp radius 
1582275455 1 3.45044 -3.25886 0 -1.56436 -0.989762 -0.334512 2.79602e-10 773.464 4.99977e-05 
ITEM: TIMESTEP
480
ITEM: NUMBER OF ATOMS
1
ITEM: BOX BOUNDS rr rr pp
2 6
-4 3.8
-0.05 0.05
ITEM: ATOMS id type x y z vx vy vz v_pmass temp radius 
1582275455 1 3.45029 -3.25896 0 -1.56436 -0.990742 -0.334512 2.79602e-10 773.471 4.99976e-05 
ITEM: TIMESTEP
490
ITEM: NUMBER OF ATOMS
1
ITEM: BOX BOUNDS rr rr pp
2 6
-4 3.8
-0.05 0.05
ITEM: ATOMS id type x y z vx vy vz v_pmass temp radius 
1582275455 1 3.45013 -3.25906 0 -1.56436 -0.991722 -0.334512 2.79602e-10 773.478 4.99975e-05 
ITEM: TIMESTEP
500
ITEM: NUMBER OF ATOMS
1
ITEM: BOX BOUNDS rr rr pp
2 6
-4 3.8
-0.05 0.05
ITEM: ATOMS id type x y z vx vy vz v_pmass temp radius 
1582275455 1 3.44997 -3.25916 0 -1.56436 -0.992702 -0.334512 2.79602e-10 773.484 4.99975e-05 
ITEM: TIMESTEP
510
ITEM: NUMBER OF ATOMS
1
ITEM: BOX BOUNDS rr rr pp
2 6
-4 3.8
-0.05 0.05
ITEM: ATOMS id type x y z vx vy vz v_pmass temp radius 
1582275455 1 3.44982 -3.25926 0 -1.56436 -0.993682 -0.334512 2.79602e-10 773.491 4.99974e-05 
ITEM: TIMESTEP
520
ITEM: NUMBER OF ATOMS
1
ITEM: BOX BOUNDS rr rr pp
2 6
-4 3.8
-0.05 0.05
ITEM: ATOMS id type x y z vx vy vz v_pmass temp radius 
1582275455 1 3.44966 -3.25936 0 -1.56436 -0.994662 -0.334512 2.79602e-10 773.498 4.99974e-05 
ITEM: TIMESTEP
530
ITEM: NUMBER OF ATOMS
1
ITEM: BOX BOUNDS rr rr pp
2 6
-4 3.8
-0.05 0.05
ITEM: ATOMS id type x y z vx vy vz v_pmass temp radius 
1582275455 1 3.4495 -3.25945 0 -1.56436 -0.995642 -0.334512 2.79602e-10 773.504 4.99973e-05 
ITEM: TIMESTEP
540
ITEM: NUMBER OF ATOMS
1
ITEM: BOX BOUNDS rr rr pp
2 6
-4 3.8
-0.05 0.05
ITEM: ATOMS id type x y z vx vy vz v_pmass temp radius 
1582275455 1 3.44935 -3.25955 0 -1.56436 -0.996622 -0.334512 2.79602e-10 773.511 4.99973e-05 
ITEM: TIMESTEP
550
ITEM: NUMBER OF ATOMS
1
ITEM: BOX BOUNDS rr rr pp
2 6
-4 3.8
-0.05 0.05
ITEM: ATOMS id type x y z vx vy vz v_pmass temp radius 
1582275455 1 3.44919 -3.25965 0 -1.56436 -0.997602 -0.334512 2.79602e-10 773.518 4.99972e-05 
ITEM: TIMESTEP
560
ITEM: NUMBER OF ATOMS
1
ITEM: BOX BOUNDS rr rr pp
2 6
-4 3.8
-0.05 0.05
ITEM: ATOMS id type x y z vx vy vz v_pmass temp radius 
1582275455 1 3.44904 -3.25975 0 -1.56436 -0.998582 -0.334512 2.79602e-10 773.525 4.99972e-05 
ITEM: TIMESTEP
570
ITEM: NUMBER OF ATOMS
1
ITEM: BOX BOUNDS rr rr pp
2 6
-4 3.8
-0.05 0.05
ITEM: ATOMS id type x y z vx vy vz v_pmass temp radius 
1582275455 1 3.44888 -3.25985 0 -1.56436 -0.999562 -0.334512 2.79602e-10 773.531 4.99971e-05 
ITEM: TIMESTEP
580
ITEM: NUMBER OF ATOMS
1
ITEM: BOX BOUNDS rr rr pp
2 6
-4 3.8
-0.05 0.05
ITEM: ATOMS id type x y z vx vy vz v_pmass temp radius 
1582275455 1 3.44872 -3.25995 0 -1.56436 -1.00054 -0.334512 2.79602e-10 773.538 4.99971e-05 
ITEM: TIMESTEP
590
ITEM: NUMBER OF ATOMS
1
ITEM: BOX BOUNDS rr rr pp
2 6
-4 3.8
-0.05 0.05
ITEM: ATOMS id type x y z vx vy vz v_pmass temp radius 
1582275455 1 3.44857 -3.26005 0 -1.56436 -1.00152 -0.334512 2.79602e-10 773.545 4.9997e-05 
ITEM: TIMESTEP
600
ITEM: NUMBER OF ATOMS
1
ITEM: BOX BOUNDS rr rr pp
2 6
-4 3.8
-0.05 0.05
ITEM: ATOMS id type x y z vx vy vz v_pmass temp radius 
1582275455 1 3.44841 -3.26015 0 -1.56436 -1.0025 -0.334512 2.79602e-10 773.551 4.9997e-05 
ITEM: TIMESTEP
610
ITEM: NUMBER OF ATOMS
1
ITEM: BOX BOUNDS rr rr pp
2 6
-4 3.8
-0.05 0.05
ITEM: ATOMS id type x y z vx vy vz v_pmass temp radius 
1582275455 1 3.44825 -3.26025 0 -1.56436 -1.00348 -0.334512 2.79602e-10 773.558 4.99969e-05 
ITEM: TIMESTEP
620
ITEM: NUMBER OF ATOMS
1
ITEM: BOX BOUNDS rr rr pp
2 6
-4 3.8
-0.05 0.05
ITEM: ATOMS id type x y z vx vy vz v_pmass temp radius 
1582275455 1 3.4481 -3.26035 0 -1.56436 -1.00446 -0.334512 2.79602e-10 773.565 4.99969e-05 
ITEM: TIMESTEP
630
ITEM: NUMBER OF ATOMS
1
ITEM: BOX BOUNDS rr rr pp
2 6
-4 3.8
-0.05 0.05
ITEM: ATOMS id type x y z vx vy vz v_pmass temp radius 
1582275455 1 3.44794 -3.26046 0 -1.56436 -1.00544 -0.334512 2.79602e-10 773.571 4.99968e-05 
ITEM: TIMESTEP
640
ITEM: NUMBER OF ATOMS
1
ITEM: BOX BOUNDS rr rr pp
2 6
-4 3.8
-0.05 0.05
ITEM: ATOMS id type x y z vx vy vz v_pmass temp radius 
1582275455 1 3.44778 -3.26056 0 -1.56436 -1.00642 -0.334512 2.79602e-10 773.578 4.99968e-05 
ITEM: TIMESTEP
650
ITEM: NUMBER OF ATOMS
1
ITEM: BOX BOUNDS rr rr pp
2 6
-4 3.8
-0.05 0.05
ITEM: ATOMS id type x y z vx vy vz v_pmass temp radius 
1582275455 1 3.44763 -3.26066 0 -1.56436 -1.0074 -0.334512 2.79602e-10 773.585 4.99967e-05 
ITEM: TIMESTEP
660
ITEM: NUMBER OF ATOMS
1
ITEM: BOX BOUNDS rr rr pp
2 6
-4 3.8
-0.05 0.05
ITEM: ATOMS id type x y z vx vy vz v_pmass temp radius 
1582275455 1 3.44747 -3.26076 0 -1.56436 -1.00838 -0.334512 2.79602e-10 773.591 4.99967e-05 
ITEM: TIMESTEP
670
ITEM: NUMBER OF ATOMS
1
ITEM: BOX BOUNDS rr rr pp
2 6
-4 3.8
-0.05 0.05
ITEM: ATOMS id type x y z vx vy vz v_pmass temp radius 
1582275455 1 3.44731 -3.26086 0 -1.56436 -1.00936 -0.334512 2.79602e-10 773.598 4.99966e-05 
ITEM: TIMESTEP
680
ITEM: NUMBER OF ATOMS
1
ITEM: BOX BOUNDS rr rr pp
2 6
-4 3.8
-0.05 0.05
ITEM: ATOMS id type x y z vx vy vz v_pmass temp radius 
1582275455 1 3.44716 -3.26096 0 -1.56436 -1.01034 -0.334512 2.79602e-10 773.605 4.99966e-05 
ITEM: TIMESTEP
690
ITEM: NUMBER OF ATOMS
1
ITEM: BOX BOUNDS rr rr pp
2 6
-4 3.8
-0.05 0.05
ITEM: ATOMS id type x y z vx vy vz v_pmass temp radius 
1582275455 1 3.447 -3.26106 0 -1.56436 -1.01132 -0.334512 2.79602e-10 773.611 4.99965e-05 
ITEM: TIMESTEP
700
ITEM: NUMBER OF ATOMS
1
ITEM: BOX BOUNDS rr rr pp
2 6
-4 3.8
-0.05 0.05
ITEM: ATOMS id type x y z vx vy vz v_pmass temp radius 
1582275455 1 3.44685 -3.26116 0 -1.56436 -1.0123 -0.334512 2.79602e-10 773.618 4.99965e-05 
ITEM: TIMESTEP
710
ITEM: NUMBER OF ATOMS
1
ITEM: BOX BOUNDS rr rr pp
2 6
-4 3.8
-0.05 0.05
ITEM: ATOMS id type x y z vx vy vz v_pmass temp radius 
1582275455 1 3.44669 -3.26126 0 -1.56436 -1.01328 -0.334512 2.79602e-10 773.625 4.99964e-05 
ITEM: TIMESTEP
720
ITEM: NUMBER OF ATOMS
1
ITEM: BOX BOUNDS rr rr pp
2 6
-4 3.8
-0.05 0.05
ITEM: ATOMS id type x y z vx vy vz v_pmass temp radius 
1582275455 1 3.44653 -3.26136 0 -1.56436 -1.01426 -0.334512 2.79602e-10 773.632 4.99964e-05 
ITEM: TIMESTEP
730
ITEM: NUMBER OF ATOMS
1
ITEM: BOX BOUNDS rr rr pp
2 6
-4 3.8
-0.05 0.05
ITEM: ATOMS id type x y z vx vy vz v_pmass temp radius 
1582275455 1 3.44638 -3.26147 0 -1.56436 -1.01524 -0.334512 2.79602e-10 773.638 4.99963e-05 
ITEM: TIMESTEP
740
ITEM: NUMBER OF ATOMS
1
ITEM: BOX BOUNDS rr rr pp
2 6
-4 3.8
-0.05 0.05
ITEM: ATOMS id type x y z vx vy vz v_pmass temp radius 
1582275455 1 3.44622 -3.26157 0 -1.56436 -1.01622 -0.334512 2.79602e-10 773.645 4.99963e-05 
ITEM: TIMESTEP
750
ITEM: NUMBER OF ATOMS
1
ITEM: BOX BOUNDS rr rr pp
2 6
-4 3.8
-0.05 0.05
ITEM: ATOMS id type x y z vx vy vz v_pmass temp radius 
1582275455 1 3.44606 -3.26167 0 -1.56436 -1.0172 -0.334512 2.79602e-10 773.652 4.99962e-05 
ITEM: TIMESTEP
760
ITEM: NUMBER OF ATOMS
1
ITEM: BOX BOUNDS rr rr pp
2 6
-4 3.8
-0.05 0.05
ITEM: ATOMS id type x y z vx vy vz v_pmass temp radius 
1582275455 1 3.44591 -3.26177 0 -1.56436 -1.01818 -0.334512 2.79602e-10 773.658 4.99962e-05 
ITEM: TIMESTEP
770
ITEM: NUMBER OF ATOMS
1
ITEM: BOX BOUNDS rr rr pp
2 6
-4 3.8
-0.05 0.05
ITEM: ATOMS id type x y z vx vy vz v_pmass temp radius 
1582275455 1 3.44575 -3.26187 0 -1.56436 -1.01916 -0.334512 2.79602e-10 773.665 4.99961e-05 
ITEM: TIMESTEP
780
ITEM: NUMBER OF ATOMS
1
ITEM: BOX BOUNDS rr rr pp
2 6
-4 3.8
-0.05 0.05
ITEM: ATOMS id type x y z vx vy vz v_pmass temp radius 
1582275455 1 3.44559 -3.26197 0 -1.56436 -1.02014 -0.334512 2.79602e-10 773.672 4.99961e-05 
ITEM: TIMESTEP
790
ITEM: NUMBER OF ATOMS
1
ITEM: BOX BOUNDS rr rr pp
2 6
-4 3.8
-0.05 0.05
ITEM: ATOMS id type x y z vx vy vz v_pmass temp radius 
1582275455 1 3.44544 -3.26208 0 -1.56436 -1.02112 -0.334512 2.79602e-10 773.678 4.9996e-05 
ITEM: TIMESTEP
800
ITEM: NUMBER OF ATOMS
1
ITEM: BOX BOUNDS rr rr pp
2 6
-4 3.8
-0.05 0.05
ITEM: ATOMS id type x y z vx vy vz v_pmass temp radius 
1582275455 1 3.44528 -3.26218 0 -1.56436 -1.0221 -0.334512 2.79602e-10 773.685 4.9996e-05 
ITEM: TIMESTEP
810
ITEM: NUMBER OF ATOMS
1
ITEM: BOX BOUNDS rr rr pp
2 6
-4 3.8
-0.05 0.05
ITEM: ATOMS id type x y z vx vy vz v_pmass temp radius 
1582275455 1 3.44512 -3.26228 0 -1.56436 -1.02308 -0.334512 2.79602e-10 773.692 4.99959e-05 
ITEM: TIMESTEP
820
ITEM: NUMBER OF ATOMS
1
ITEM: BOX BOUNDS rr rr pp
2 6
-4 3.8
-0.05 0.05
ITEM: ATOMS id type x y z vx vy vz v_pmass temp radius 
1582275455 1 3.44497 -3.26238 0 -1.56436 -1.02406 -0.334512 2.79602e-10 773.698 4.99959e-05 
ITEM: TIMESTEP
830
ITEM: NUMBER OF ATOMS
1
ITEM: BOX BOUNDS rr rr pp
2 6
-4 3.8
-0.05 0.05
ITEM: ATOMS id type x y z vx vy vz v_pmass temp radius 
1582275455 1 3.44481 -3.26249 0 -1.56436 -1.02504 -0.334512 2.79602e-10 773.705 4.99958e-05 
ITEM: TIMESTEP
840
ITEM: NUMBER OF ATOMS
1
ITEM: BOX BOUNDS rr rr pp
2 6
-4 3.8
-0.05 0.05
ITEM: ATOMS id type x y z vx vy vz v_pmass temp radius 
1582275455 1 3.44465 -3.26259 0 -1.56436 -1.02602 -0.334512 2.79602e-10 773.712 4.99958e-05 
ITEM: TIMESTEP
850
ITEM: NUMBER OF ATOMS
1
ITEM: BOX BOUNDS rr rr pp
2 6
-4 3.8
-0.05 0.05
ITEM: ATOMS id type x y z vx vy vz v_pmass temp radius 
1582275455 1 3.4445 -3.26269 0 -1.56436 -1.027 -0.334512 2.79602e-10 773.718 4.99957e-05 
ITEM: TIMESTEP
860
ITEM: NUMBER OF ATOMS
1
ITEM: BOX BOUNDS rr rr pp
2 6
-4 3.8
-0.05 0.05
ITEM: ATOMS id type x y z vx vy vz v_pmass temp radius 
1582275455 1 3.44434 -3.26279 0 -1.56436 -1.02798 -0.334512 2.79602e-10 773.725 4.99957e-05 
ITEM: TIMESTEP
870
ITEM: NUMBER OF ATOMS
1
ITEM: BOX BOUNDS rr rr pp
2 6
-4 3.8
-0.05 0.05
ITEM: ATOMS id type x y z vx vy vz v_pmass temp radius 
1582275455 1 3.44419 -3.2629 0 -1.56436 -1.02896 -0.334512 2.79602e-10 773.732 4.99956e-05 
ITEM: TIMESTEP
880
ITEM: NUMBER OF ATOMS
1
ITEM: BOX BOUNDS rr rr pp
2 6
-4 3.8
-0.05 0.05
ITEM: ATOMS id type x y z vx vy vz v_pmass temp radius 
1582275455 1 3.44403 -3.263 0 -1.56436 -1.02994 -0.334512 2.79602e-10 773.739 4.99956e-05 
ITEM: TIMESTEP
890
ITEM: NUMBER OF ATOMS
1
ITEM: BOX BOUNDS rr rr pp
2 6
-4 3.8
-0.05 0.05
ITEM: ATOMS id type x y z vx vy vz v_pmass temp radius 
1582275455 1 3.44387 -3.2631 0 -1.56436 -1.03092 -0.334512 2.79602e-10 773.745 4.99955e-05 
ITEM: TIMESTEP
900
ITEM: NUMBER OF ATOMS
1
ITEM: BOX BOUNDS rr rr pp
2 6
-4 3.8
-0.05 0.05
ITEM: ATOMS id type x y z vx vy vz v_pmass temp radius 
1582275455 1 3.44372 -3.26321 0 -1.56436 -1.0319 -0.334512 2.79602e-10 773.752 4.99955e-05 
ITEM: TIMESTEP
910
ITEM: NUMBER OF ATOMS
1
ITEM: BOX BOUNDS rr rr pp
2 6
-4 3.8
-0.05 0.05
ITEM: ATOMS id type x y z vx vy vz v_pmass temp radius 
1582275455 1 3.44356 -3.26331 0 -1.56436 -1.03288 -0.334512 2.79602e-10 773.759 4.99954e-05 
ITEM: TIMESTEP
920
ITEM: NUMBER OF ATOMS
1
ITEM: BOX BOUNDS rr rr pp
2 6
-4 3.8
-0.05 0.05
ITEM: ATOMS id type x y z vx vy vz v_pmass temp radius 
1582275455 1 3.4434 -3.26341 0 -1.56436 -1.03386 -0.334512 2.79602e-10 773.765 4.99954e-05 
ITEM: TIMESTEP
930
ITEM: NUMBER OF ATOMS
1
ITEM: BOX BOUNDS rr rr pp
2 6
-4 3.8
-0.05 0.05
ITEM: ATOMS id type x y z vx vy vz v_pmass temp radius 
1582275455 1 3.44325 -3.26352 0 -1.56436 -1.03484 -0.334512 2.79602e-10 773.772 4.99953e-05 
ITEM: TIMESTEP
940
ITEM: NUMBER OF ATOMS
1
ITEM: BOX BOUNDS rr rr pp
2 6
-4 3.8
-0.05 0.05
ITEM: ATOMS id type x y z vx vy vz v_pmass temp radius 
1582275455 1 3.44309 -3.26362 0 -1.56436 -1.03582 -0.334512 2.79602e-10 773.779 4.99953e-05 
ITEM: TIMESTEP
950
ITEM: NUMBER OF ATOMS
1
ITEM: BOX BOUNDS rr rr pp
2 6
-4 3.8
-0.05 0.05
ITEM: ATOMS id type x y z vx vy vz v_pmass temp radius 
1582275455 1 3.44293 -3.26372 0 -1.56436 -1.0368 -0.334512 2.79602e-10 773.785 4.99952e-05 
ITEM: TIMESTEP
960
ITEM: NUMBER OF ATOMS
1
ITEM: BOX BOUNDS rr rr pp
2 6
-4 3.8
-0.05 0.05
ITEM: ATOMS id type x y z vx vy vz v_pmass temp radius 
1582275455 1 3.44278 -3.26383 0 -1.56436 -1.03778 -0.334512 2.79602e-10 773.792 4.99952e-05 
ITEM: TIMESTEP
970
ITEM: NUMBER OF ATOMS
1
ITEM: BOX BOUNDS rr rr pp
2 6
-4 3.8
-0.05 0.05
ITEM: ATOMS id type x y z vx vy vz v_pmass temp radius 
1582275455 1 3.44262 -3.26393 0 -1.56436 -1.03876 -0.334512 2.79602e-10 773.799 4.99951e-05 
ITEM: TIMESTEP
980
ITEM: NUMBER OF ATOMS
1
ITEM: BOX BOUNDS rr rr pp
2 6
-4 3.8
-0.05 0.05
ITEM: ATOMS id type x y z vx vy vz v_pmass temp radius 
1582275455 1 3.44246 -3.26403 0 -1.56436 -1.03974 -0.334512 2.79602e-10 773.805 4.99951e-05 
ITEM: TIMESTEP
990
ITEM: NUMBER OF ATOMS
1
ITEM: BOX BOUNDS rr rr pp
2 6
-4 3.8
-0.05 0.05
ITEM: ATOMS id type x y z vx vy vz v_pmass temp radius 
1582275455 1 3.44231 -3.26414 0 -1.56436 -1.04072 -0.334512 2.79602e-10 773.812 4.9995e-05 
ITEM: TIMESTEP
1000
ITEM: NUMBER OF ATOMS
1
ITEM: BOX BOUNDS rr rr pp
2 6
-4 3.8
-0.05 0.05
ITEM: ATOMS id type x y z vx vy vz v_pmass temp radius 
1582275455 1 3.44215 -3.26424 0 -1.56436 -1.0417 -0.334512 2.79602e-10 773.819 4.9995e-05 
ITEM: TIMESTEP
1010
ITEM: NUMBER OF ATOMS
1
ITEM: BOX BOUNDS rr rr pp
2 6
-4 3.8
-0.05 0.05
ITEM: ATOMS id type x y z vx vy vz v_pmass temp radius 
1582275455 1 3.442 -3.26435 0 -1.56436 -1.04268 -0.334512 2.79602e-10 773.825 4.99949e-05 
ITEM: TIMESTEP
1020
ITEM: NUMBER OF ATOMS
1
ITEM: BOX BOUNDS rr rr pp
2 6
-4 3.8
-0.05 0.05
ITEM: ATOMS id type x y z vx vy vz v_pmass temp radius 
1582275455 1 3.44184 -3.26445 0 -1.56436 -1.04366 -0.334512 2.79602e-10 773.832 4.99949e-05 
ITEM: TIMESTEP
1030
ITEM: NUMBER OF ATOMS
1
ITEM: BOX BOUNDS rr rr pp
2 6
-4 3.8
-0.05 0.05
ITEM: ATOMS id type x y z vx vy vz v_pmass temp radius 
1582275455 1 3.44168 -3.26456 0 -1.56436 -1.04464 -0.334512 2.79602e-10 773.839 4.99948e-05 
ITEM: TIMESTEP
1040
ITEM: NUMBER OF ATOMS
1
ITEM: BOX BOUNDS rr rr pp
2 6
-4 3.8
-0.05 0.05
ITEM: ATOMS id type x y z vx vy vz v_pmass temp radius 
1582275455 1 3.44153 -3.26466 0 -1.56436 -1.04562 -0.334512 2.79602e-10 773.846 4.99948e-05 
ITEM: TIMESTEP
1050
ITEM: NUMBER OF ATOMS
1
ITEM: BOX BOUNDS rr rr pp
2 6
-4 3.8
-0.05 0.05
ITEM: ATOMS id type x y z vx vy vz v_pmass temp radius 
1582275455 1 3.44137 -3.26476 0 -1.56436 -1.0466 -0.334512 2.79602e-10 773.852 4.99947e-05 
ITEM: TIMESTEP
1060
ITEM: NUMBER OF ATOMS
1
ITEM: BOX BOUNDS rr rr pp
2 6
-4 3.8
-0.05 0.05
ITEM: ATOMS id type x y z vx vy vz v_pmass temp radius 
1582275455 1 3.44121 -3.26487 0 -1.56436 -1.04758 -0.334512 2.79602e-10 773.859 4.99947e-05 
ITEM: TIMESTEP
1070
ITEM: NUMBER OF ATOMS
1
ITEM: BOX BOUNDS rr rr pp
2 6
-4 3.8
-0.05 0.05
ITEM: ATOMS id type x y z vx vy vz v_pmass temp radius 
1582275455 1 3.44106 -3.26497 0 -1.56436 -1.04856 -0.334512 2.79602e-10 773.866 4.99946e-05 
ITEM: TIMESTEP
1080
ITEM: NUMBER OF ATOMS
1
ITEM: BOX BOUNDS rr rr pp
2 6
-4 3.8
-0.05 0.05
ITEM: ATOMS id type x y z vx vy vz v_pmass temp radius 
1582275455 1 3.4409 -3.26508 0 -1.56436 -1.04954 -0.334512 2.79602e-10 773.872 4.99946e-05 
ITEM: TIMESTEP
1090
ITEM: NUMBER OF ATOMS
1
ITEM: BOX BOUNDS rr rr pp
2 6
-4 3.8
-0.05 0.05
ITEM: ATOMS id type x y z vx vy vz v_pmass temp radius 
1582275455 1 3.44074 -3.26518 0 -1.56436 -1.05052 -0.334512 2.79602e-10 773.879 4.99945e-05 
ITEM: TIMESTEP
1100
ITEM: NUMBER OF ATOMS
1
ITEM: BOX BOUNDS rr rr pp
2 6
-4 3.8
-0.05 0.05
ITEM: ATOMS id type x y z vx vy vz v_pmass temp radius 
1582275455 1 3.44059 -3.26529 0 -1.56436 -1.0515 -0.334512 2.79602e-10 773.886 4.99945e-05 
ITEM: TIMESTEP
1110
ITEM: NUMBER OF ATOMS
1
ITEM: BOX BOUNDS rr rr pp
2 6
-4 3.8
-0.05 0.05
ITEM: ATOMS id type x y z vx vy vz v_pmass temp radius 
1582275455 1 3.44043 -3.26539 0 -1.56436 -1.05248 -0.334512 2.79602e-10 773.892 4.99944e-05 
ITEM: TIMESTEP
1120
ITEM: NUMBER OF ATOMS
1
ITEM: BOX BOUNDS rr rr pp
2 6
-4 3.8
-0.05 0.05
ITEM: ATOMS id type x y z vx vy vz v_pmass temp radius 
1582275455 1 3.44027 -3.2655 0 -1.56436 -1.05346 -0.334512 2.79602e-10 773.899 4.99944e-05 
ITEM: TIMESTEP
1130
ITEM: NUMBER OF ATOMS
1
ITEM: BOX BOUNDS rr rr pp
2 6
-4 3.8
-0.05 0.05
ITEM: ATOMS id type x y z vx vy vz v_pmass temp radius 
1582275455 1 3.44012 -3.2656 0 -1.56436 -1.05444 -0.334512 2.79602e-10 773.906 4.99943e-05 
ITEM: TIMESTEP
1140
ITEM: NUMBER OF ATOMS
1
ITEM: BOX BOUNDS rr rr pp
2 6
-4 3.8
-0.05 0.05
ITEM: ATOMS id type x y z vx vy vz v_pmass temp radius 
1582275455 1 3.43996 -3.26571 0 -1.56436 -1.05542 -0.334512 2.79602e-10 773.912 4.99943e-05 
ITEM: TIMESTEP
1150
ITEM: NUMBER OF ATOMS
1
ITEM: BOX BOUNDS rr rr pp
2 6
-4 3.8
-0.05 0.05
ITEM: ATOMS id type x y z vx vy vz v_pmass temp radius 
1582275455 1 3.43981 -3.26582 0 -1.56436 -1.0564 -0.334512 2.79602e-10 773.919 4.99942e-05 
ITEM: TIMESTEP
1160
ITEM: NUMBER OF ATOMS
1
ITEM: BOX BOUNDS rr rr pp
2 6
-4 3.8
-0.05 0.05
ITEM: ATOMS id type x y z vx vy vz v_pmass temp radius 
1582275455 1 3.43965 -3.26592 0 -1.56436 -1.05738 -0.334512 2.79602e-10 773.926 4.99942e-05 
ITEM: TIMESTEP
1170
ITEM: NUMBER OF ATOMS
1
ITEM: BOX BOUNDS rr rr pp
2 6
-4 3.8
-0.05 0.05
ITEM: ATOMS id type x y z vx vy vz v_pmass temp radius 
1582275455 1 3.43949 -3.26603 0 -1.56436 -1.05836 -0.334512 2.79602e-10 773.933 4.99941e-05 
ITEM: TIMESTEP
1180
ITEM: NUMBER OF ATOMS
1
ITEM: BOX BOUNDS rr rr pp
2 6
-4 3.8
-0.05 0.05
ITEM: ATOMS id type x y z vx vy vz v_pmass temp radius 
1582275455 1 3.43934 -3.26613 0 -1.56436 -1.05934 -0.334512 2.79602e-10 773.939 4.99941e-05 
ITEM: TIMESTEP
1190
ITEM: NUMBER OF ATOMS
1
ITEM: BOX BOUNDS rr rr pp
2 6
-4 3.8
-0.05 0.05
ITEM: ATOMS id type x y z vx vy vz v_pmass temp radius 
1582275455 1 3.43918 -3.26624 0 -1.56436 -1.06032 -0.334512 2.79602e-10 773.946 4.9994e-05 
ITEM: TIMESTEP
1200
ITEM: NUMBER OF ATOMS
1
ITEM: BOX BOUNDS rr rr pp
2 6
-4 3.8
-0.05 0.05
ITEM: ATOMS id type x y z vx vy vz v_pmass temp radius 
1582275455 1 3.43902 -3.26635 0 -1.56436 -1.0613 -0.334512 2.79602e-10 773.953 4.9994e-05 
ITEM: TIMESTEP
1210
ITEM: NUMBER OF ATOMS
1
ITEM: BOX BOUNDS rr rr pp
2 6
-4 3.8
-0.05 0.05
ITEM: ATOMS id type x y z vx vy vz v_pmass temp radius 
1582275455 1 3.43887 -3.26645 0 -1.56436 -1.06228 -0.334512 2.79602e-10 773.959 4.99939e-05 
ITEM: TIMESTEP
1220
ITEM: NUMBER OF ATOMS
1
ITEM: BOX BOUNDS rr rr pp
2 6
-4 3.8
-0.05 0.05
ITEM: ATOMS id type x y z vx vy vz v_pmass temp radius 
1582275455 1 3.43871 -3.26656 0 -1.56436 -1.06326 -0.334512 2.79602e-10 773.966 4.99939e-05 
ITEM: TIMESTEP
1230
ITEM: NUMBER OF ATOMS
1
ITEM: BOX BOUNDS rr rr pp
2 6
-4 3.8
-0.05 0.05
ITEM: ATOMS id type x y z vx vy vz v_pmass temp radius 
1582275455 1 3.43855 -3.26666 0 -1.56436 -1.06424 -0.334512 2.79602e-10 773.973 4.99938e-05 
ITEM: TIMESTEP
1240
ITEM: NUMBER OF ATOMS
1
ITEM: BOX BOUNDS rr rr pp
2 6
-4 3.8
-0.05 0.05
ITEM: ATOMS id type x y z vx vy vz v_pmass temp radius 
1582275455 1 3.4384 -3.26677 0 -1.56436 -1.06522 -0.334512 2.79602e-10 773.979 4.99938e-05 
ITEM: TIMESTEP
1250
ITEM: NUMBER OF ATOMS
1
ITEM: BOX BOUNDS rr rr pp
2 6
-4 3.8