ITEM: TIMESTEP
0
ITEM: NUMBER OF ATOMS
0
ITEM: BOX BOUNDS rr rr pp
2 6
-4 3.8
-0.05 0.05
ITEM: ATOMS id type x y z vx vy vz v_pmass temp radius 
ITEM: TIMESTEP
10
ITEM: NUMBER OF ATOMS
1
ITEM: BOX BOUNDS rr rr pp
2 6
-4 3.8
-0.05 0.05
ITEM: ATOMS id type x y z vx vy vz v_pmass temp radius 
1582275455 1 3.45764 -3.25441 0 -1.56436 -0.9438 -0.334512 2.79602e-10 773.157 5e-05 
ITEM: TIMESTEP
20
ITEM: NUMBER OF ATOMS
1
ITEM: BOX BOUNDS rr rr pp
2 6
-4 3.8
-0.05 0.05
ITEM: ATOMS id type x y z vx vy vz v_pmass temp radius 
1582275455 1 3.45748 -3.2545 0 -1.56436 -0.9438 -0.334512 2.79602e-10 773.163 4.99999e-05 
ITEM: TIMESTEP
30
ITEM: NUMBER OF ATOMS
1
ITEM: BOX BOUNDS rr rr pp
2 6
-4 3.8
-0.05 0.05
ITEM: ATOMS id type x y z vx vy vz v_pmass temp radius 
1582275455 1 3.45733 -3.2546 0 -1.56436 -0.9438 -0.334512 2.79602e-10 773.17 4.99999e-05 
ITEM: TIMESTEP
40
ITEM: NUMBER OF ATOMS
1
ITEM: BOX BOUNDS rr rr pp
2 6
-4 3.8
-0.05 0.05
ITEM: ATOMS id type x y z vx vy vz v_pmass temp radius 
1582275455 1 3.45717 -3.25469 0 -1.56436 -0.9438 -0.334512 2.79602e-10 773.177 4.99998e-05 
ITEM: TIMESTEP
50
ITEM: NUMBER OF ATOMS
1
ITEM: BOX BOUNDS rr rr pp
2 6
-4 3.8
-0.05 0.05
ITEM: ATOMS id type x y z vx vy vz v_pmass temp radius 
1582275455 1 3.45701 -3.25479 0 -1.56436 -0.9438 -0.334512 2.79602e-10 773.183 4.99998e-05 
ITEM: TIMESTEP
60
ITEM: NUMBER OF ATOMS
1
ITEM: BOX BOUNDS rr rr pp
2 6
-4 3.8
-0.05 0.05
ITEM: ATOMS id type x y z vx vy vz v_pmass temp radius 
1582275455 1 3.45686 -3.25488 0 -1.56436 -0.9438 -0.334512 2.79602e-10 773.19 4.99997e-05 
ITEM: TIMESTEP
70
ITEM: NUMBER OF ATOMS
1
ITEM: BOX BOUNDS rr rr pp
2 6
-4 3.8
-0.05 0.05
ITEM: ATOMS id type x y z vx vy vz v_pmass temp radius 
1582275455 1 3.4567 -3.25498 0 -1.56436 -0.9438 -0.334512 2.79602e-10 773.197 4.99997e-05 
ITEM: TIMESTEP
80
ITEM: NUMBER OF ATOMS
1
ITEM: BOX BOUNDS rr rr pp
2 6
-4 3.8
-0.05 0.05
ITEM: ATOMS id type x y z vx vy vz v_pmass temp radius 
1582275455 1 3.45654 -3.25507 0 -1.56436 -0.9438 -0.334512 2.79602e-10 773.204 4.99996e-05 
ITEM: TIMESTEP
90
ITEM: NUMBER OF ATOMS
1
ITEM: BOX BOUNDS rr rr pp
2 6
-4 3.8
-0.05 0.05
ITEM: ATOMS id type x y z vx vy vz v_pmass temp radius 
1582275455 1 3.45639 -3.25516 0 -1.56436 -0.9438 -0.334512 2.79602e-10 773.21 4.99996e-05 
ITEM: TIMESTEP
100
ITEM: NUMBER OF ATOMS
1
ITEM: BOX BOUNDS rr rr pp
2 6
-4 3.8
-0.05 0.05
ITEM: ATOMS id type x y z vx vy vz v_pmass temp radius 
1582275455 1 3.45623 -3.25526 0 -1.56436 -0.9438 -0.334512 2.79602e-10 773.217 4.99995e-05 
ITEM: TIMESTEP
110
ITEM: NUMBER OF ATOMS
1
ITEM: BOX BOUNDS rr rr pp
2 6
-4 3.8
-0.05 0.05
ITEM: ATOMS id type x y z vx vy vz v_pmass temp radius 
1582275455 1 3.45607 -3.25535 0 -1.56436 -0.9438 -0.334512 2.79602e-10 773.224 4.99995e-05 
ITEM: TIMESTEP
120
ITEM: NUMBER OF ATOMS
1
ITEM: BOX BOUNDS rr rr pp
2 6
-4 3.8
-0.05 0.05
ITEM: ATOMS id type x y z vx vy vz v_pmass temp radius 
1582275455 1 3.45592 -3.25545 0 -1.56436 -0.9438 -0.334512 2.79602e-10 773.23 4.99994e-05 
ITEM: TIMESTEP
130
ITEM: NUMBER OF ATOMS
1
ITEM: BOX BOUNDS rr rr pp
2 6
-4 3.8
-0.05 0.05
ITEM: ATOMS id type x y z vx vy vz v_pmass temp radius 
1582275455 1 3.45576 -3.25554 0 -1.56436 -0.9438 -0.334512 2.79602e-10 773.237 4.99994e-05 
ITEM: TIMESTEP
140
ITEM: NUMBER OF ATOMS
1
ITEM: BOX BOUNDS rr rr pp
2 6
-4 3.8
-0.05 0.05
ITEM: ATOMS id type x y z vx vy vz v_pmass temp radius 
1582275455 1 3.45561 -3.25564 0 -1.56436 -0.9438 -0.334512 2.79602e-10 773.244 4.99993e-05 
ITEM: TIMESTEP
150
ITEM: NUMBER OF ATOMS
1
ITEM: BOX BOUNDS rr rr pp
2 6
-4 3.8
-0.05 0.05
ITEM: ATOMS id type x y z vx vy vz v_pmass temp radius 
1582275455 1 3.45545 -3.25573 0 -1.56436 -0.9438 -0.334512 2.79602e-10 773.25 4.99993e-05 
ITEM: TIMESTEP
160
ITEM: NUMBER OF ATOMS
1
ITEM: BOX BOUNDS rr rr pp
2 6
-4 3.8
-0.05 0.05
ITEM: ATOMS id type x y z vx vy vz v_pmass temp radius 
1582275455 1 3.45529 -3.25583 0 -1.56436 -0.9438 -0.334512 2.79602e-10 773.257 4.99992e-05 
ITEM: TIMESTEP
170
ITEM: NUMBER OF ATOMS
1
ITEM: BOX BOUNDS rr rr pp
2 6
-4 3.8
-0.05 0.05
ITEM: ATOMS id type x y z vx vy vz v_pmass temp radius 
1582275455 1 3.45514 -3.25592 0 -1.56436 -0.9438 -0.334512 2.79602e-10 773.264 4.99992e-05 
ITEM: TIMESTEP
180
ITEM: NUMBER OF ATOMS
1
ITEM: BOX BOUNDS rr rr pp
2 6
-4 3.8
-0.05 0.05
ITEM: ATOMS id type x y z vx vy vz v_pmass temp radius 
1582275455 1 3.45498 -3.25601 0 -1.56436 -0.9438 -0.334512 2.79602e-10 773.27 4.99991e-05 
ITEM: TIMESTEP
190
ITEM: NUMBER OF ATOMS
1
ITEM: BOX BOUNDS rr rr pp
2 6
-4 3.8
-0.05 0.05
ITEM: ATOMS id type x y z vx vy vz v_pmass temp radius 
1582275455 1 3.45482 -3.25611 0 -1.56436 -0.9438 -0.334512 2.79602e-10 773.277 4.99991e-05 
ITEM: TIMESTEP
200
ITEM: NUMBER OF ATOMS
1
ITEM: BOX BOUNDS rr rr pp
2 6
-4 3.8
-0.05 0.05
ITEM: ATOMS id type x y z vx vy vz v_pmass temp radius 
1582275455 1 3.45467 -3.2562 0 -1.56436 -0.9438 -0.334512 2.79602e-10 773.284 4.9999e-05 
ITEM: TIMESTEP
210
ITEM: NUMBER OF ATOMS
1
ITEM: BOX BOUNDS rr rr pp
2 6
-4 3.8
-0.05 0.05
ITEM: ATOMS id type x y z vx vy vz v_pmass temp radius 
1582275455 1 3.45451 -3.2563 0 -1.56436 -0.9438 -0.334512 2.79602e-10 773.29 4.9999e-05 
ITEM: TIMESTEP
220
ITEM: NUMBER OF ATOMS
1
ITEM: BOX BOUNDS rr rr pp
2 6
-4 3.8
-0.05 0.05
ITEM: ATOMS id type x y z vx vy vz v_pmass temp radius 
1582275455 1 3.45435 -3.25639 0 -1.56436 -0.9438 -0.334512 2.79602e-10 773.297 4.99989e-05 
ITEM: TIMESTEP
230
ITEM: NUMBER OF ATOMS
1
ITEM: BOX BOUNDS rr rr pp
2 6
-4 3.8
-0.05 0.05
ITEM: ATOMS id type x y z vx vy vz v_pmass temp radius 
1582275455 1 3.4542 -3.25649 0 -1.56436 -0.9438 -0.334512 2.79602e-10 773.304 4.99989e-05 
ITEM: TIMESTEP
240
ITEM: NUMBER OF ATOMS
1
ITEM: BOX BOUNDS rr rr pp
2 6
-4 3.8
-0.05 0.05
ITEM: ATOMS id type x y z vx vy vz v_pmass temp radius 
1582275455 1 3.45404 -3.25658 0 -1.56436 -0.9438 -0.334512 2.79602e-10 773.311 4.99988e-05 
ITEM: TIMESTEP
250
ITEM: NUMBER OF ATOMS
1
ITEM: BOX BOUNDS rr rr pp
2 6
-4 3.8
-0.05 0.05
ITEM: ATOMS id type x y z vx vy vz v_pmass temp radius 
1582275455 1 3.45388 -3.25667 0 -1.56436 -0.9438 -0.334512 2.79602e-10 773.317 4.99988e-05 
ITEM: TIMESTEP
260
ITEM: NUMBER OF ATOMS
1
ITEM: BOX BOUNDS rr rr pp
2 6
-4 3.8
-0.05 0.05
ITEM: ATOMS id type x y z vx vy vz v_pmass temp radius 
1582275455 1 3.45373 -3.25677 0 -1.56436 -0.9438 -0.334512 2.79602e-10 773.324 4.99987e-05 
ITEM: TIMESTEP
270
ITEM: NUMBER OF ATOMS
1
ITEM: BOX BOUNDS rr rr pp
2 6
-4 3.8
-0.05 0.05
ITEM: ATOMS id type x y z vx vy vz v_pmass temp radius 
1582275455 1 3.45357 -3.25686 0 -1.56436 -0.9438 -0.334512 2.79602e-10 773.331 4.99987e-05 
ITEM: TIMESTEP
280
ITEM: NUMBER OF ATOMS
1
ITEM: BOX BOUNDS rr rr pp
2 6
-4 3.8
-0.05 0.05
ITEM: ATOMS id type x y z vx vy vz v_pmass temp radius 
1582275455 1 3.45342 -3.25696 0 -1.56436 -0.9438 -0.334512 2.79602e-10 773.337 4.99986e-05 
ITEM: TIMESTEP
290
ITEM: NUMBER OF ATOMS
1
ITEM: BOX BOUNDS rr rr pp
2 6
-4 3.8
-0.05 0.05
ITEM: ATOMS id type x y z vx vy vz v_pmass temp radius 
1582275455 1 3.45326 -3.25705 0 -1.56436 -0.9438 -0.334512 2.79602e-10 773.344 4.99986e-05 
ITEM: TIMESTEP
300
ITEM: NUMBER OF ATOMS
1
ITEM: BOX BOUNDS rr rr pp
2 6
-4 3.8
-0.05 0.05
ITEM: ATOMS id type x y z vx vy vz v_pmass temp radius 
1582275455 1 3.4531 -3.25715 0 -1.56436 -0.9438 -0.334512 2.79602e-10 773.351 4.99985e-05 
ITEM: TIMESTEP
310
ITEM: NUMBER OF ATOMS
1
ITEM: BOX BOUNDS rr rr pp
2 6
-4 3.8
-0.05 0.05
ITEM: ATOMS id type x y z vx vy vz v_pmass temp radius 
1582275455 1 3.45295 -3.25724 0 -1.56436 -0.9438 -0.334512 2.79602e-10 773.357 4.99985e-05 
ITEM: TIMESTEP
320
ITEM: NUMBER OF ATOMS
1
ITEM: BOX BOUNDS rr rr pp
2 6
-4 3.8
-0.05 0.05
ITEM: ATOMS id type x y z vx vy vz v_pmass temp radius 
1582275455 1 3.45279 -3.25734 0 -1.56436 -0.9438 -0.334512 2.79602e-10 773.364 4.99984e-05 
ITEM: TIMESTEP
330
ITEM: NUMBER OF ATOMS
1
ITEM: BOX BOUNDS rr rr pp
2 6
-4 3.8
-0.05 0.05
ITEM: ATOMS id type x y z vx vy vz v_pmass temp radius 
1582275455 1 3.45263 -3.25743 0 -1.56436 -0.9438 -0.334512 2.79602e-10 773.371 4.99984e-05 
ITEM: TIMESTEP
340
ITEM: NUMBER OF ATOMS
1
ITEM: BOX BOUNDS rr rr pp
2 6
-4 3.8
-0.05 0.05
ITEM: ATOMS id type x y z vx vy vz v_pmass temp radius 
1582275455 1 3.45248 -3.25752 0 -1.56436 -0.9438 -0.334512 2.79602e-10 773.377 4.99983e-05 
ITEM: TIMESTEP
350
ITEM: NUMBER OF ATOMS
1
ITEM: BOX BOUNDS rr rr pp
2 6
-4 3.8
-0.05 0.05
ITEM: ATOMS id type x y z vx vy vz v_pmass temp radius 
1582275455 1 3.45232 -3.25762 0 -1.56436 -0.9438 -0.334512 2.79602e-10 773.384 4.99983e-05 
ITEM: TIMESTEP
360
ITEM: NUMBER OF ATOMS
1
ITEM: BOX BOUNDS rr rr pp
2 6
-4 3.8
-0.05 0.05
ITEM: ATOMS id type x y z vx vy vz v_pmass temp radius 
1582275455 1 3.45216 -3.25771 0 -1.56436 -0.9438 -0.334512 2.79602e-10 773.391 4.99982e-05 
ITEM: TIMESTEP
370
ITEM: NUMBER OF ATOMS
1
ITEM: BOX BOUNDS rr rr pp
2 6
-4 3.8
-0.05 0.05
ITEM: ATOMS id type x y z vx vy vz v_pmass temp radius 
1582275455 1 3.45201 -3.25781 0 -1.56436 -0.9438 -0.334512 2.79602e-10 773.397 4.99982e-05 
ITEM: TIMESTEP
380
ITEM: NUMBER OF ATOMS
1
ITEM: BOX BOUNDS rr rr pp
2 6
-4 3.8
-0.05 0.05
ITEM: ATOMS id type x y z vx vy vz v_pmass temp radius 
1582275455 1 3.45185 -3.2579 0 -1.56436 -0.9438 -0.334512 2.79602e-10 773.404 4.99981e-05 
ITEM: TIMESTEP
390
ITEM: NUMBER OF ATOMS
1
ITEM: BOX BOUNDS rr rr pp
2 6
-4 3.8
-0.05 0.05
ITEM: ATOMS id type x y z vx vy vz v_pmass temp radius 
1582275455 1 3.45169 -3.258 0 -1.56436 -0.9438 -0.334512 2.79602e-10 773.411 4.99981e-05 
ITEM: TIMESTEP
400
ITEM: NUMBER OF ATOMS
1
ITEM: BOX BOUNDS rr rr pp
2 6
-4 3.8
-0.05 0.05
ITEM: ATOMS id type x y z vx vy vz v_pmass temp radius 
1582275455 1 3.45154 -3.25809 0 -1.56436 -0.9438 -0.334512 2.79602e-10 773.418 4.9998e-05 
ITEM: TIMESTEP
410
ITEM: NUMBER OF ATOMS
1
ITEM: BOX BOUNDS rr rr pp
2 6
-4 3.8
-0.05 0.05
ITEM: ATOMS id type x y z vx vy vz v_pmass temp radius 
1582275455 1 3.45138 -3.25818 0 -1.56436 -0.9438 -0.334512 2.79602e-10 773.424 4.9998e-05 
ITEM: TIMESTEP
420
ITEM: NUMBER OF ATOMS
1
ITEM: BOX BOUNDS rr rr pp
2 6
-4 3.8
-0.05 0.05
ITEM: ATOMS id type x y z vx vy vz v_pmass temp radius 
1582275455 1 3.45123 -3.25828 0 -1.56436 -0.9438 -0.334512 2.79602e-10 773.431 4.99979e-05 
ITEM: TIMESTEP
430
ITEM: NUMBER OF ATOMS
1
ITEM: BOX BOUNDS rr rr pp
2 6
-4 3.8
-0.05 0.05
ITEM: ATOMS id type x y z vx vy vz v_pmass temp radius 
1582275455 1 3.45107 -3.25837 0 -1.56436 -0.9438 -0.334512 2.79602e-10 773.438 4.99979e-05 
ITEM: TIMESTEP
440
ITEM: NUMBER OF ATOMS
1
ITEM: BOX BOUNDS rr rr pp
2 6
-4 3.8
-0.05 0.05
ITEM: ATOMS id type x y z vx vy vz v_pmass temp radius 
1582275455 1 3.45091 -3.25847 0 -1.56436 -0.9438 -0.334512 2.79602e-10 773.444 4.99978e-05 
ITEM: TIMESTEP
450
ITEM: NUMBER OF ATOMS
1
ITEM: BOX BOUNDS rr rr pp
2 6
-4 3.8
-0.05 0.05
ITEM: ATOMS id type x y z vx vy vz v_pmass temp radius 
1582275455 1 3.45076 -3.25856 0 -1.56436 -0.9438 -0.334512 2.79602e-10 773.451 4.99978e-05 
ITEM: TIMESTEP
460
ITEM: NUMBER OF ATOMS
1
ITEM: BOX BOUNDS rr rr pp
2 6
-4 3.8
-0.05 0.05
ITEM: ATOMS id type x y z vx vy vz v_pmass temp radius 
1582275455 1 3.4506 -3.25866 0 -1.56436 -0.9438 -0.334512 2.79602e-10 773.458 4.99977e-05 
ITEM: TIMESTEP
470
ITEM: NUMBER OF ATOMS
1
ITEM: BOX BOUNDS rr rr pp
2 6
-4 3.8
-0.05 0.05
ITEM: ATOMS id type x y z vx vy vz v_pmass temp radius 
1582275455 1 3.45044 -3.25875 0 -1.56436 -0.9438 -0.334512 2.79602e-10 773.464 4.99977e-05 
ITEM: TIMESTEP
480
ITEM: NUMBER OF ATOMS
1
ITEM: BOX BOUNDS rr rr pp
2 6
-4 3.8
-0.05 0.05
ITEM: ATOMS id type x y z vx vy vz v_pmass temp radius 
1582275455 1 3.45029 -3.25885 0 -1.56436 -0.9438 -0.334512 2.79602e-10 773.471 4.99976e-05 
ITEM: TIMESTEP
490
ITEM: NUMBER OF ATOMS
1
ITEM: BOX BOUNDS rr rr pp
2 6
-4 3.8
-0.05 0.05
ITEM: ATOMS id type x y z vx vy vz v_pmass temp radius 
1582275455 1 3.45013 -3.25894 0 -1.56436 -0.9438 -0.334512 2.79602e-10 773.478 4.99975e-05 
ITEM: TIMESTEP
500
ITEM: NUMBER OF ATOMS
1
ITEM: BOX BOUNDS rr rr pp
2 6
-4 3.8
-0.05 0.05
ITEM: ATOMS id type x y z vx vy vz v_pmass temp radius 
1582275455 1 3.44997 -3.25903 0 -1.56436 -0.9438 -0.334512 2.79602e-10 773.484 4.99975e-05 
ITEM: TIMESTEP
510
ITEM: NUMBER OF ATOMS
1
ITEM: BOX BOUNDS rr rr pp
2 6
-4 3.8
-0.05 0.05
ITEM: ATOMS id type x y z vx vy vz v_pmass temp radius 
1582275455 1 3.44982 -3.25913 0 -1.56436 -0.9438 -0.334512 2.79602e-10 773.491 4.99974e-05 
ITEM: TIMESTEP
520
ITEM: NUMBER OF ATOMS
1
ITEM: BOX BOUNDS rr rr pp
2 6
-4 3.8
-0.05 0.05
ITEM: ATOMS id type x y z vx vy vz v_pmass temp radius 
1582275455 1 3.44966 -3.25922 0 -1.56436 -0.9438 -0.334512 2.79602e-10 773.498 4.99974e-05 
ITEM: TIMESTEP
530
ITEM: NUMBER OF ATOMS
1
ITEM: BOX BOUNDS rr rr pp
2 6
-4 3.8
-0.05 0.05
ITEM: ATOMS id type x y z vx vy vz v_pmass temp radius 
1582275455 1 3.4495 -3.25932 0 -1.56436 -0.9438 -0.334512 2.79602e-10 773.504 4.99973e-05 
ITEM: TIMESTEP
540
ITEM: NUMBER OF ATOMS
1
ITEM: BOX BOUNDS rr rr pp
2 6
-4 3.8
-0.05 0.05
ITEM: ATOMS id type x y z vx vy vz v_pmass temp radius 
1582275455 1 3.44935 -3.25941 0 -1.56436 -0.9438 -0.334512 2.79602e-10 773.511 4.99973e-05 
ITEM: TIMESTEP
550
ITEM: NUMBER OF ATOMS
1
ITEM: BOX BOUNDS rr rr pp
2 6
-4 3.8
-0.05 0.05
ITEM: ATOMS id type x y z vx vy vz v_pmass temp radius 
1582275455 1 3.44919 -3.25951 0 -1.56436 -0.9438 -0.334512 2.79602e-10 773.518 4.99972e-05 
ITEM: TIMESTEP
560
ITEM: NUMBER OF ATOMS
1
ITEM: BOX BOUNDS rr rr pp
2 6
-4 3.8
-0.05 0.05
ITEM: ATOMS id type x y z vx vy vz v_pmass temp radius 
1582275455 1 3.44904 -3.2596 0 -1.56436 -0.9438 -0.334512 2.79602e-10 773.525 4.99972e-05 
ITEM: TIMESTEP
570
ITEM: NUMBER OF ATOMS
1
ITEM: BOX BOUNDS rr rr pp
2 6
-4 3.8
-0.05 0.05
ITEM: ATOMS id type x y z vx vy vz v_pmass temp radius 
1582275455 1 3.44888 -3.25969 0 -1.56436 -0.9438 -0.334512 2.79602e-10 773.531 4.99971e-05 
ITEM: TIMESTEP
580
ITEM: NUMBER OF ATOMS
1
ITEM: BOX BOUNDS rr rr pp
2 6
-4 3.8
-0.05 0.05
ITEM: ATOMS id type x y z vx vy vz v_pmass temp radius 
1582275455 1 3.44872 -3.25979 0 -1.56436 -0.9438 -0.334512 2.79602e-10 773.538 4.99971e-05 
ITEM: TIMESTEP
590
ITEM: NUMBER OF ATOMS
1
ITEM: BOX BOUNDS rr rr pp
2 6
-4 3.8
-0.05 0.05
ITEM: ATOMS id type x y z vx vy vz v_pmass temp radius 
1582275455 1 3.44857 -3.25988 0 -1.56436 -0.9438 -0.334512 2.79602e-10 773.545 4.9997e-05 
ITEM: TIMESTEP
600
ITEM: NUMBER OF ATOMS
1
ITEM: BOX BOUNDS rr rr pp
2 6
-4 3.8
-0.05 0.05
ITEM: ATOMS id type x y z vx vy vz v_pmass temp radius 
1582275455 1 3.44841 -3.25998 0 -1.56436 -0.9438 -0.334512 2.79602e-10 773.551 4.9997e-05 
ITEM: TIMESTEP
610
ITEM: NUMBER OF ATOMS
1
ITEM: BOX BOUNDS rr rr pp
2 6
-4 3.8
-0.05 0.05
ITEM: ATOMS id type x y z vx vy vz v_pmass temp radius 
1582275455 1 3.44825 -3.26007 0 -1.56436 -0.9438 -0.334512 2.79602e-10 773.558 4.99969e-05 
ITEM: TIMESTEP
620
ITEM: NUMBER OF ATOMS
1
ITEM: BOX BOUNDS rr rr pp
2 6
-4 3.8
-0.05 0.05
ITEM: ATOMS id type x y z vx vy vz v_pmass temp radius 
1582275455 1 3.4481 -3.26017 0 -1.56436 -0.9438 -0.334512 2.79602e-10 773.565 4.99969e-05 
ITEM: TIMESTEP
630
ITEM: NUMBER OF ATOMS
1
ITEM: BOX BOUNDS rr rr pp
2 6
-4 3.8
-0.05 0.05
ITEM: ATOMS id type x y z vx vy vz v_pmass temp radius 
1582275455 1 3.44794 -3.26026 0 -1.56436 -0.9438 -0.334512 2.79602e-10 773.571 4.99968e-05 
ITEM: TIMESTEP
640
ITEM: NUMBER OF ATOMS
1
ITEM: BOX BOUNDS rr rr pp
2 6
-4 3.8
-0.05 0.05
ITEM: ATOMS id type x y z vx vy vz v_pmass temp radius 
1582275455 1 3.44778 -3.26036 0 -1.56436 -0.9438 -0.334512 2.79602e-10 773.578 4.99968e-05 
ITEM: TIMESTEP
650
ITEM: NUMBER OF ATOMS
1
ITEM: BOX BOUNDS rr rr pp
2 6
-4 3.8
-0.05 0.05
ITEM: ATOMS id type x y z vx vy vz v_pmass temp radius 
1582275455 1 3.44763 -3.26045 0 -1.56436 -0.9438 -0.334512 2.79602e-10 773.585 4.99967e-05 
ITEM: TIMESTEP
660
ITEM: NUMBER OF ATOMS
1
ITEM: BOX BOUNDS rr rr pp
2 6
-4 3.8
-0.05 0.05
ITEM: ATOMS id type x y z vx vy vz v_pmass temp radius 
1582275455 1 3.44747 -3.26054 0 -1.56436 -0.9438 -0.334512 2.79602e-10 773.591 4.99967e-05 
ITEM: TIMESTEP
670
ITEM: NUMBER OF ATOMS
1
ITEM: BOX BOUNDS rr rr pp
2 6
-4 3.8
-0.05 0.05
ITEM: ATOMS id type x y z vx vy vz v_pmass temp radius 
1582275455 1 3.44731 -3.26064 0 -1.56436 -0.9438 -0.334512 2.79602e-10 773.598 4.99966e-05 
ITEM: TIMESTEP
680
ITEM: NUMBER OF ATOMS
1
ITEM: BOX BOUNDS rr rr pp
2 6
-4 3.8
-0.05 0.05
ITEM: ATOMS id type x y z vx vy vz v_pmass temp radius 
1582275455 1 3.44716 -3.26073 0 -1.56436 -0.9438 -0.334512 2.79602e-10 773.605 4.99966e-05 
ITEM: TIMESTEP
690
ITEM: NUMBER OF ATOMS
1
ITEM: BOX BOUNDS rr rr pp
2 6
-4 3.8
-0.05 0.05
ITEM: ATOMS id type x y z vx vy vz v_pmass temp radius 
1582275455 1 3.447 -3.26083 0 -1.56436 -0.9438 -0.334512 2.79602e-10 773.611 4.99965e-05 
ITEM: TIMESTEP
700
ITEM: NUMBER OF ATOMS
1
ITEM: BOX BOUNDS rr rr pp
2 6
-4 3.8
-0.05 0.05
ITEM: ATOMS id type x y z vx vy vz v_pmass temp radius 
1582275455 1 3.44685 -3.26092 0 -1.56436 -0.9438 -0.334512 2.79602e-10 773.618 4.99965e-05 
ITEM: TIMESTEP
710
ITEM: NUMBER OF ATOMS
1
ITEM: BOX BOUNDS rr rr pp
2 6
-4 3.8
-0.05 0.05
ITEM: ATOMS id type x y z vx vy vz v_pmass temp radius 
1582275455 1 3.44669 -3.26102 0 -1.56436 -0.9438 -0.334512 2.79602e-10 773.625 4.99964e-05 
ITEM: TIMESTEP
720
ITEM: NUMBER OF ATOMS
1
ITEM: BOX BOUNDS rr rr pp
2 6
-4 3.8
-0.05 0.05
ITEM: ATOMS id type x y z vx vy vz v_pmass temp radius 
1582275455 1 3.44653 -3.26111 0 -1.56436 -0.9438 -0.334512 2.79602e-10 773.632 4.99964e-05 
ITEM: TIMESTEP
730
ITEM: NUMBER OF ATOMS
1
ITEM: BOX BOUNDS rr rr pp
2 6
-4 3.8
-0.05 0.05
ITEM: ATOMS id type x y z vx vy vz v_pmass temp radius 
1582275455 1 3.44638 -3.26121 0 -1.56436 -0.9438 -0.334512 2.79602e-10 773.638 4.99963e-05 
ITEM: TIMESTEP
740
ITEM: NUMBER OF ATOMS
1
ITEM: BOX BOUNDS rr rr pp
2 6
-4 3.8
-0.05 0.05
ITEM: ATOMS id type x y z vx vy vz v_pmass temp radius 
1582275455 1 3.44622 -3.2613 0 -1.56436 -0.9438 -0.334512 2.79602e-10 773.645 4.99963e-05 
ITEM: TIMESTEP
750
ITEM: NUMBER OF ATOMS
1
ITEM: BOX BOUNDS rr rr pp
2 6
-4 3.8
-0.05 0.05
ITEM: ATOMS id type x y z vx vy vz v_pmass temp radius 
1582275455 1 3.44606 -3.26139 0 -1.56436 -0.9438 -0.334512 2.79602e-10 773.652 4.99962e-05 
ITEM: TIMESTEP
760
ITEM: NUMBER OF ATOMS
1
ITEM: BOX BOUNDS rr rr pp
2 6
-4 3.8
-0.05 0.05
ITEM: ATOMS id type x y z vx vy vz v_pmass temp radius 
1582275455 1 3.44591 -3.26149 0 -1.56436 -0.9438 -0.334512 2.79602e-10 773.658 4.99962e-05 
ITEM: TIMESTEP
770
ITEM: NUMBER OF ATOMS
1
ITEM: BOX BOUNDS rr rr pp
2 6
-4 3.8
-0.05 0.05
ITEM: ATOMS id type x y z vx vy vz v_pmass temp radius 
1582275455 1 3.44575 -3.26158 0 -1.56436 -0.9438 -0.334512 2.79602e-10 773.665 4.99961e-05 
ITEM: TIMESTEP
780
ITEM: NUMBER OF ATOMS
1
ITEM: BOX BOUNDS rr rr pp
2 6
-4 3.8
-0.05 0.05
ITEM: ATOMS id type x y z vx vy vz v_pmass temp radius 
1582275455 1 3.44559 -3.26168 0 -1.56436 -0.9438 -0.334512 2.79602e-10 773.672 4.99961e-05 
ITEM: TIMESTEP
790
ITEM: NUMBER OF ATOMS
1
ITEM: BOX BOUNDS rr rr pp
2 6
-4 3.8
-0.05 0.05
ITEM: ATOMS id type x y z vx vy vz v_pmass temp radius 
1582275455 1 3.44544 -3.26177 0 -1.56436 -0.9438 -0.334512 2.79602e-10 773.678 4.9996e-05 
ITEM: TIMESTEP
800
ITEM: NUMBER OF ATOMS
1
ITEM: BOX BOUNDS rr rr pp
2 6
-4 3.8
-0.05 0.05
ITEM: ATOMS id type x y z vx vy vz v_pmass temp radius 
1582275455 1 3.44528 -3.26187 0 -1.56436 -0.9438 -0.334512 2.79602e-10 773.685 4.9996e-05 
ITEM: TIMESTEP
810
ITEM: NUMBER OF ATOMS
1
ITEM: BOX BOUNDS rr rr pp
2 6
-4 3.8
-0.05 0.05
ITEM: ATOMS id type x y z vx vy vz v_pmass temp radius 
1582275455 1 3.44512 -3.26196 0 -1.56436 -0.9438 -0.334512 2.79602e-10 773.692 4.99959e-05 
ITEM: TIMESTEP
820
ITEM: NUMBER OF ATOMS
1
ITEM: BOX BOUNDS rr rr pp
2 6
-4 3.8
-0.05 0.05
ITEM: ATOMS id type x y z vx vy vz v_pmass temp radius 
1582275455 1 3.44497 -3.26205 0 -1.56436 -0.9438 -0.334512 2.79602e-10 773.698 4.99959e-05 
ITEM: TIMESTEP
830
ITEM: NUMBER OF ATOMS
1
ITEM: BOX BOUNDS rr rr pp
2 6
-4 3.8
-0.05 0.05
ITEM: ATOMS id type x y z vx vy vz v_pmass temp radius 
1582275455 1 3.44481 -3.26215 0 -1.56436 -0.9438 -0.334512 2.79602e-10 773.705 4.99958e-05 
ITEM: TIMESTEP
840
ITEM: NUMBER OF ATOMS
1
ITEM: BOX BOUNDS rr rr pp
2 6
-4 3.8
-0.05 0.05
ITEM: ATOMS id type x y z vx vy vz v_pmass temp radius 
1582275455 1 3.44465 -3.26224 0 -1.56436 -0.9438 -0.334512 2.79602e-10 773.712 4.99958e-05 
ITEM: TIMESTEP
850
ITEM: NUMBER OF ATOMS
1
ITEM: BOX BOUNDS rr rr pp
2 6
-4 3.8
-0.05 0.05
ITEM: ATOMS id type x y z vx vy vz v_pmass temp radius 
1582275455 1 3.4445 -3.26234 0 -1.56436 -0.9438 -0.334512 2.79602e-10 773.718 4.99957e-05 
ITEM: TIMESTEP
860
ITEM: NUMBER OF ATOMS
1
ITEM: BOX BOUNDS rr rr pp
2 6
-4 3.8
-0.05 0.05
ITEM: ATOMS id type x y z vx vy vz v_pmass temp radius 
1582275455 1 3.44434 -3.26243 0 -1.56436 -0.9438 -0.334512 2.79602e-10 773.725 4.99957e-05 
ITEM: TIMESTEP
870
ITEM: NUMBER OF ATOMS
1
ITEM: BOX BOUNDS rr rr pp
2 6
-4 3.8
-0.05 0.05
ITEM: ATOMS id type x y z vx vy vz v_pmass temp radius 
1582275455 1 3.44419 -3.26253 0 -1.56436 -0.9438 -0.334512 2.79602e-10 773.732 4.99956e-05 
ITEM: TIMESTEP
880
ITEM: NUMBER OF ATOMS
1
ITEM: BOX BOUNDS rr rr pp
2 6
-4 3.8
-0.05 0.05
ITEM: ATOMS id type x y z vx vy vz v_pmass temp radius 
1582275455 1 3.44403 -3.26262 0 -1.56436 -0.9438 -0.334512 2.79602e-10 773.739 4.99956e-05 
ITEM: TIMESTEP
890
ITEM: NUMBER OF ATOMS
1
ITEM: BOX BOUNDS rr rr pp
2 6
-4 3.8
-0.05 0.05
ITEM: ATOMS id type x y z vx vy vz v_pmass temp radius 
1582275455 1 3.44387 -3.26272 0 -1.56436 -0.9438 -0.334512 2.79602e-10 773.745 4.99955e-05 
ITEM: TIMESTEP
900
ITEM: NUMBER OF ATOMS
1
ITEM: BOX BOUNDS rr rr pp
2 6
-4 3.8
-0.05 0.05
ITEM: ATOMS id type x y z vx vy vz v_pmass temp radius 
1582275455 1 3.44372 -3.26281 0 -1.56436 -0.9438 -0.334512 2.79602e-10 773.752 4.99955e-05 
ITEM: TIMESTEP
910
ITEM: NUMBER OF ATOMS
1
ITEM: BOX BOUNDS rr rr pp
2 6
-4 3.8
-0.05 0.05
ITEM: ATOMS id type x y z vx vy vz v_pmass temp radius 
1582275455 1 3.44356 -3.2629 0 -1.56436 -0.9438 -0.334512 2.79602e-10 773.759 4.99954e-05 
ITEM: TIMESTEP
920
ITEM: NUMBER OF ATOMS
1
ITEM: BOX BOUNDS rr rr pp
2 6
-4 3.8
-0.05 0.05
ITEM: ATOMS id type x y z vx vy vz v_pmass temp radius 
1582275455 1 3.4434 -3.263 0 -1.56436 -0.9438 -0.334512 2.79602e-10 773.765 4.99954e-05 
ITEM: TIMESTEP
930
ITEM: NUMBER OF ATOMS
1
ITEM: BOX BOUNDS rr rr pp
2 6
-4 3.8
-0.05 0.05
ITEM: ATOMS id type x y z vx vy vz v_pmass temp radius 
1582275455 1 3.44325 -3.26309 0 -1.56436 -0.9438 -0.334512 2.79602e-10 773.772 4.99953e-05 
ITEM: TIMESTEP
940
ITEM: NUMBER OF ATOMS
1
ITEM: BOX BOUNDS rr rr pp
2 6
-4 3.8
-0.05 0.05
ITEM: ATOMS id type x y z vx vy vz v_pmass temp radius 
1582275455 1 3.44309 -3.26319 0 -1.56436 -0.9438 -0.334512 2.79602e-10 773.779 4.99953e-05 
ITEM: TIMESTEP
950
ITEM: NUMBER OF ATOMS
1
ITEM: BOX BOUNDS rr rr pp
2 6
-4 3.8
-0.05 0.05
ITEM: ATOMS id type x y z vx vy vz v_pmass temp radius 
1582275455 1 3.44293 -3.26328 0 -1.56436 -0.9438 -0.334512 2.79602e-10 773.785 4.99952e-05 
ITEM: TIMESTEP
960
ITEM: NUMBER OF ATOMS
1
ITEM: BOX BOUNDS rr rr pp
2 6
-4 3.8
-0.05 0.05
ITEM: ATOMS id type x y z vx vy vz v_pmass temp radius 
1582275455 1 3.44278 -3.26338 0 -1.56436 -0.9438 -0.334512 2.79602e-10 773.792 4.99952e-05 
ITEM: TIMESTEP
970
ITEM: NUMBER OF ATOMS
1
ITEM: BOX BOUNDS rr rr pp
2 6
-4 3.8
-0.05 0.05
ITEM: ATOMS id type x y z vx vy vz v_pmass temp radius 
1582275455 1 3.44262 -3.26347 0 -1.56436 -0.9438 -0.334512 2.79602e-10 773.799 4.99951e-05 
ITEM: TIMESTEP
980
ITEM: NUMBER OF ATOMS
1
ITEM: BOX BOUNDS rr rr pp
2 6
-4 3.8
-0.05 0.05
ITEM: ATOMS id type x y z vx vy vz v_pmass temp radius 
1582275455 1 3.44246 -3.26356 0 -1.56436 -0.9438 -0.334512 2.79602e-10 773.805 4.99951e-05 
ITEM: TIMESTEP
990
ITEM: NUMBER OF ATOMS
1
ITEM: BOX BOUNDS rr rr pp
2 6
-4 3.8
-0.05 0.05
ITEM: ATOMS id type x y z vx vy vz v_pmass temp radius 
1582275455 1 3.44231 -3.26366 0 -1.56436 -0.9438 -0.334512 2.79602e-10 773.812 4.9995e-05 
ITEM: TIMESTEP
1000
ITEM: NUMBER OF ATOMS
1
ITEM: BOX BOUNDS rr rr pp
2 6
-4 3.8
-0.05 0.05
ITEM: ATOMS id type x y z vx vy vz v_pmass temp radius 
1582275455 1 3.44215 -3.26375 0 -1.56436 -0.9438 -0.334512 2.79602e-10 773.819 4.9995e-05 
ITEM: TIMESTEP
1010
ITEM: NUMBER OF ATOMS
1
ITEM: BOX BOUNDS rr rr pp
2 6
-4 3.8
-0.05 0.05
ITEM: ATOMS id type x y z vx vy vz v_pmass temp radius 
1582275455 1 3.442 -3.26385 0 -1.56436 -0.9438 -0.334512 2.79602e-10 773.825 4.99949e-05 
ITEM: TIMESTEP
1020
ITEM: NUMBER OF ATOMS
1
ITEM: BOX BOUNDS rr rr pp
2 6
-4 3.8
-0.05 0.05
ITEM: ATOMS id type x y z vx vy vz v_pmass temp radius 
1582275455 1 3.44184 -3.26394 0 -1.56436 -0.9438 -0.334512 2.79602e-10 773.832 4.99949e-05 
ITEM: TIMESTEP
1030
ITEM: NUMBER OF ATOMS
1
ITEM: BOX BOUNDS rr rr pp
2 6
-4 3.8
-0.05 0.05
ITEM: ATOMS id type x y z vx vy vz v_pmass temp radius 
1582275455 1 3.44168 -3.26404 0 -1.56436 -0.9438 -0.334512 2.79602e-10 773.839 4.99948e-05 
ITEM: TIMESTEP
1040
ITEM: NUMBER OF ATOMS
1
ITEM: BOX BOUNDS rr rr pp
2 6
-4 3.8
-0.05 0.05
ITEM: ATOMS id type x y z vx vy vz v_pmass temp radius 
1582275455 1 3.44153 -3.26413 0 -1.56436 -0.9438 -0.334512 2.79602e-10 773.846 4.99948e-05 
ITEM: TIMESTEP
1050
ITEM: NUMBER OF ATOMS
1
ITEM: BOX BOUNDS rr rr pp
2 6
-4 3.8
-0.05 0.05
ITEM: ATOMS id type x y z vx vy vz v_pmass temp radius 
1582275455 1 3.44137 -3.26423 0 -1.56436 -0.9438 -0.334512 2.79602e-10 773.852 4.99947e-05 
ITEM: TIMESTEP
1060
ITEM: NUMBER OF ATOMS
1
ITEM: BOX BOUNDS rr rr pp
2 6
-4 3.8
-0.05 0.05
ITEM: ATOMS id type x y z vx vy vz v_pmass temp radius 
1582275455 1 3.44121 -3.26432 0 -1.56436 -0.9438 -0.334512 2.79602e-10 773.859 4.99947e-05 
ITEM: TIMESTEP
1070
ITEM: NUMBER OF ATOMS
1
ITEM: BOX BOUNDS rr rr pp
2 6
-4 3.8
-0.05 0.05
ITEM: ATOMS id type x y z vx vy vz v_pmass temp radius 
1582275455 1 3.44106 -3.26441 0 -1.56436 -0.9438 -0.334512 2.79602e-10 773.866 4.99946e-05 
ITEM: TIMESTEP
1080
ITEM: NUMBER OF ATOMS
1
ITEM: BOX BOUNDS rr rr pp
2 6
-4 3.8
-0.05 0.05
ITEM: ATOMS id type x y z vx vy vz v_pmass temp radius 
1582275455 1 3.4409 -3.26451 0 -1.56436 -0.9438 -0.334512 2.79602e-10 773.872 4.99946e-05 
ITEM: TIMESTEP
1090
ITEM: NUMBER OF ATOMS
1
ITEM: BOX BOUNDS rr rr pp
2 6
-4 3.8
-0.05 0.05
ITEM: ATOMS id type x y z vx vy vz v_pmass temp radius 
1582275455 1 3.44074 -3.2646 0 -1.56436 -0.9438 -0.334512 2.79602e-10 773.879 4.99945e-05 
ITEM: TIMESTEP
1100
ITEM: NUMBER OF ATOMS
1
ITEM: BOX BOUNDS rr rr pp
2 6
-4 3.8
-0.05 0.05
ITEM: ATOMS id type x y z vx vy vz v_pmass temp radius 
1582275455 1 3.44059 -3.2647 0 -1.56436 -0.9438 -0.334512 2.79602e-10 773.886 4.99945e-05 
ITEM: TIMESTEP
1110
ITEM: NUMBER OF ATOMS
1
ITEM: BOX BOUNDS rr rr pp
2 6
-4 3.8
-0.05 0.05
ITEM: ATOMS id type x y z vx vy vz v_pmass temp radius 
1582275455 1 3.44043 -3.26479 0 -1.56436 -0.9438 -0.334512 2.79602e-10 773.892 4.99944e-05 
ITEM: TIMESTEP
1120
ITEM: NUMBER OF ATOMS
1
ITEM: BOX BOUNDS rr rr pp
2 6
-4 3.8
-0.05 0.05
ITEM: ATOMS id type x y z vx vy vz v_pmass temp radius 
1582275455 1 3.44027 -3.26489 0 -1.56436 -0.9438 -0.334512 2.79602e-10 773.899 4.99944e-05 
ITEM: TIMESTEP
1130
ITEM: NUMBER OF ATOMS
1
ITEM: BOX BOUNDS rr rr pp
2 6
-4 3.8
-0.05 0.05
ITEM: ATOMS id type x y z vx vy vz v_pmass temp radius 
1582275455 1 3.44012 -3.26498 0 -1.56436 -0.9438 -0.334512 2.79602e-10 773.906 4.99943e-05 
ITEM: TIMESTEP
1140
ITEM: NUMBER OF ATOMS
1
ITEM: BOX BOUNDS rr rr pp
2 6
-4 3.8
-0.05 0.05
ITEM: ATOMS id type x y z vx vy vz v_pmass temp radius 
1582275455 1 3.43996 -3.26507 0 -1.56436 -0.9438 -0.334512 2.79602e-10 773.912 4.99943e-05 
ITEM: TIMESTEP
1150
ITEM: NUMBER OF ATOMS
1
ITEM: BOX BOUNDS rr rr pp
2 6
-4 3.8
-0.05 0.05
ITEM: ATOMS id type x y z vx vy vz v_pmass temp radius 
1582275455 1 3.43981 -3.26517 0 -1.56436 -0.9438 -0.334512 2.79602e-10 773.919 4.99942e-05 
ITEM: TIMESTEP
1160
ITEM: NUMBER OF ATOMS
1
ITEM: BOX BOUNDS rr rr pp
2 6
-4 3.8
-0.05 0.05
ITEM: ATOMS id type x y z vx vy vz v_pmass temp radius 
1582275455 1 3.43965 -3.26526 0 -1.56436 -0.9438 -0.334512 2.79602e-10 773.926 4.99942e-05 
ITEM: TIMESTEP
1170
ITEM: NUMBER OF ATOMS
1
ITEM: BOX BOUNDS rr rr pp
2 6
-4 3.8
-0.05 0.05
ITEM: ATOMS id type x y z vx vy vz v_pmass temp radius 
1582275455 1 3.43949 -3.26536 0 -1.56436 -0.9438 -0.334512 2.79602e-10 773.933 4.99941e-05 
ITEM: TIMESTEP
1180
ITEM: NUMBER OF ATOMS
1
ITEM: BOX BOUNDS rr rr pp
2 6
-4 3.8
-0.05 0.05
ITEM: ATOMS id type x y z vx vy vz v_pmass temp radius 
1582275455 1 3.43934 -3.26545 0 -1.56436 -0.9438 -0.334512 2.79602e-10 773.939 4.99941e-05 
ITEM: TIMESTEP
1190
ITEM: NUMBER OF ATOMS
1
ITEM: BOX BOUNDS rr rr pp
2 6
-4 3.8
-0.05 0.05
ITEM: ATOMS id type x y z vx vy vz v_pmass temp radius 
1582275455 1 3.43918 -3.26555 0 -1.56436 -0.9438 -0.334512 2.79602e-10 773.946 4.9994e-05 
ITEM: TIMESTEP
1200
ITEM: NUMBER OF ATOMS
1
ITEM: BOX BOUNDS rr rr pp
2 6
-4 3.8
-0.05 0.05
ITEM: ATOMS id type x y z vx vy vz v_pmass temp radius 
1582275455 1 3.43902 -3.26564 0 -1.56436 -0.9438 -0.334512 2.79602e-10 773.953 4.9994e-05 
ITEM: TIMESTEP
1210
ITEM: NUMBER OF ATOMS
1
ITEM: BOX BOUNDS rr rr pp
2 6
-4 3.8
-0.05 0.05
ITEM: ATOMS id type x y z vx vy vz v_pmass temp radius 
1582275455 1 3.43887 -3.26574 0 -1.56436 -0.9438 -0.334512 2.79602e-10 773.959 4.99939e-05 
ITEM: TIMESTEP
1220
ITEM: NUMBER OF ATOMS
1
ITEM: BOX BOUNDS rr rr pp
2 6
-4 3.8
-0.05 0.05
ITEM: ATOMS id type x y z vx vy vz v_pmass temp radius 
1582275455 1 3.43871 -3.26583 0 -1.56436 -0.9438 -0.334512 2.79602e-10 773.966 4.99939e-05 
ITEM: TIMESTEP
1230
ITEM: NUMBER OF ATOMS
1
ITEM: BOX BOUNDS rr rr pp
2 6
-4 3.8
-0.05 0.05
ITEM: ATOMS id type x y z vx vy vz v_pmass temp radius 
1582275455 1 3.43855 -3.26592 0 -1.56436 -0.9438 -0.334512 2.79602e-10 773.973 4.99938e-05 
ITEM: TIMESTEP
1240
ITEM: NUMBER OF ATOMS
1
ITEM: BOX BOUNDS rr rr pp
2 6
-4 3.8
-0.05 0.05
ITEM: ATOMS id type x y z vx vy vz v_pmass temp radius 
1582275455 1 3.4384 -3.26602 0 -1.56436 -0.9438 -0.334512 2.79602e-10 773.979 4.99938e-05 
ITEM: TIMESTEP
1250
ITEM: NUMBER OF ATOMS
1
ITEM: BOX BOUNDS rr rr pp
2 6
-4 3.8
-0.05 0.05
ITEM: ATOMS id type x y z vx vy vz v_pmass temp radius 
1582275455 1 3.43824 -3.26611 0 -1.56436 -0.9438 -0.334512 2.79602e-10 773.986 4.99937e-05 
ITEM: TIMESTEP